
7625 atoms
7 atom types

0 138.479700 xlo xhi
0 39.975600 ylo yhi
0 90.290500 zlo zhi

Masses

1 195.084
2 195.084
3 195.084
4 196.967
5 196.967
6 196.967
7 1.0

Atoms

1 3 13.004640 22.245870 37.017600
2 2 13.001100 19.031780 39.147800
3 2 11.727050 21.408860 39.236300
4 2 11.964750 16.542330 39.260000
5 2 13.319110 15.861680 41.421200
6 2 11.725110 18.196850 41.367600
7 2 10.694010 15.713490 41.479000
8 2 12.846340 25.432750 41.365100
9 2 12.094410 13.433840 41.448800
10 2 11.599780 22.990360 41.383700
11 3 15.537330 20.699700 34.718800
12 3 14.278730 23.066670 34.799900
13 3 14.483020 18.205400 34.833900
14 3 15.866610 17.545510 36.974900
15 3 14.272830 19.868580 36.932000
16 3 13.231120 17.375550 37.044900
17 3 15.472910 27.015280 36.958300
18 3 14.642540 15.100590 37.013700
19 2 16.093920 14.392310 39.194600
20 2 14.595100 16.702810 39.198400
21 2 13.373030 14.264910 39.228000
22 3 14.179760 24.663780 36.935700
23 2 15.593100 23.980610 39.127300
24 2 14.141290 26.270070 39.138300
25 2 12.887570 23.830610 39.161400
26 2 14.879250 12.050820 39.246200
27 2 16.292240 11.146630 41.344300
28 2 14.814180 13.550100 41.414200
29 2 13.595460 11.216260 41.462300
30 2 14.353990 21.490550 39.159700
31 2 15.819280 20.793980 41.405800
32 2 14.294770 23.131700 41.363900
33 2 13.070010 20.646200 41.387500
34 2 15.398240 30.216460 41.387300
35 2 14.501450 18.335850 41.385300
36 2 14.101880 27.872000 41.348400
37 3 17.957090 22.498400 30.348800
38 3 16.749670 19.926590 30.363600
39 3 18.340700 19.229000 32.474200
40 3 16.797520 21.529990 32.530700
41 3 15.697450 19.026490 32.622200
42 3 17.113910 16.751500 32.593500
43 3 18.624780 16.079450 34.739300
44 3 17.125110 18.386430 34.739700
45 3 15.895320 15.932500 34.803500
46 3 18.160050 25.754290 34.651000
47 3 15.509190 25.415990 34.758500
48 3 17.404500 13.722050 34.825600
49 3 18.850130 12.838820 36.911600
50 3 17.366750 15.236900 36.973000
51 3 16.151300 12.888340 37.034100
52 3 16.947230 23.167970 34.723400
53 3 18.408570 22.481310 36.929000
54 3 16.924180 24.816120 36.900400
55 3 15.640120 22.333820 36.934500
56 2 19.232230 9.856110 39.218300
57 2 17.576340 11.990090 39.127800
58 3 17.063380 20.022040 36.925000
59 2 18.588460 19.329200 39.159400
60 2 17.109810 21.640390 39.167300
61 2 15.783040 19.179980 39.157400
62 2 18.102110 28.952140 39.057000
63 2 15.434700 28.617180 39.168900
64 2 17.947720 9.009950 41.435600
65 2 17.358250 16.861640 39.190100
66 2 18.822710 16.134790 41.398500
67 2 17.300900 18.480260 41.403500
68 2 16.075950 16.012760 41.424300
69 2 16.893440 26.431630 39.106900
70 2 18.340920 25.719110 41.364900
71 2 16.852860 28.032300 41.323700
72 2 15.555900 25.595580 41.342700
73 2 17.553670 13.628500 41.374600
74 2 17.068320 23.264640 41.385200
75 3 21.067170 17.708510 30.225900
76 3 19.508230 20.108510 30.230600
77 3 18.222870 17.557840 30.325000
78 3 19.791370 15.246480 30.353200
79 3 21.340660 14.555380 32.498400
80 3 19.847440 16.907080 32.472400
81 3 18.623220 14.537120 32.617100
82 3 19.328530 24.987590 30.302400
83 3 20.908700 24.215530 32.427100
84 3 19.570420 26.492010 32.508800
85 3 18.145980 24.129120 32.504300
86 3 21.748530 11.570630 34.783500
87 3 20.107760 13.690050 34.694600
88 3 19.561890 21.751870 32.442900
89 3 21.128850 21.031390 34.640400
90 3 19.646700 23.380040 34.665000
91 3 18.346170 20.854410 34.687000
92 3 20.502620 10.709060 37.000500
93 3 19.888980 18.556410 34.676600
94 3 21.379570 17.856060 36.901300
95 3 19.874500 20.174070 36.907300
96 3 18.633280 17.711030 36.945100
97 3 19.575730 28.060740 34.706300
98 3 20.945960 27.419670 36.868100
99 3 19.553800 29.648570 36.917000
100 3 18.136800 27.357070 36.846400
101 3 20.110030 15.335840 36.913400
102 2 21.616550 14.700480 39.156700
103 2 20.106370 16.991540 39.153700
104 2 18.836190 14.479020 39.146800
105 3 19.630070 25.008100 36.873100
106 2 21.117820 24.268450 39.123100
107 2 19.600710 26.617270 39.089900
108 2 18.377590 24.108920 39.142600
109 2 20.365030 12.233720 39.144700
110 2 21.848930 11.498800 41.341600
111 2 20.332400 13.840530 41.393900
112 2 19.079790 11.381950 41.365900
113 2 19.874340 21.787870 39.153500
114 2 21.339990 21.089520 41.386600
115 2 19.838870 23.404630 41.385900
116 2 18.578710 20.940400 41.402600
117 2 19.522600 31.229900 39.137300
118 2 20.884570 30.587700 41.329300
119 2 19.487790 32.740550 41.335400
120 2 18.054850 30.539340 41.284300
121 2 20.628230 9.086000 41.364600
122 2 20.070610 18.617800 41.390300
123 2 19.559770 28.218220 41.315900
124 3 22.625420 15.329400 30.315400
125 3 23.655760 22.799760 30.189800
126 3 22.110610 25.184960 30.257200
127 3 20.796430 22.641300 30.210300
128 3 22.357310 20.255920 30.175600
129 3 23.886170 19.565090 32.385800
130 3 22.383570 21.881620 32.390400
131 3 21.113250 19.401040 32.409500
132 3 22.630780 17.026910 32.431500
133 3 24.178930 16.386350 34.646700
134 3 22.639690 18.702670 34.635000
135 3 21.363820 16.209680 34.672800
136 3 22.238500 26.688420 32.469500
137 3 23.699690 25.972110 34.641700
138 3 22.237350 28.254200 34.661200
139 3 20.956600 25.816030 34.650300
140 3 22.907850 13.989010 34.710600
141 3 24.425880 13.271560 36.879300
142 3 22.891760 15.578130 36.918500
143 3 21.642760 13.094050 36.921900
144 3 22.420560 23.485860 34.634900
145 3 23.913410 22.807460 36.859200
146 3 22.421610 25.097620 36.879100
147 3 21.143470 22.649670 36.888700
148 3 23.183170 10.814490 36.908400
149 2 24.642600 10.106960 39.110000
150 2 23.141430 12.363900 39.106800
151 2 21.912390 9.943930 39.138100
152 3 22.641440 20.333600 36.870700
153 2 24.128620 19.635270 39.116700
154 2 22.625570 21.950880 39.121300
155 2 21.361560 19.476240 39.137700
156 3 22.216780 29.839000 36.869700
157 2 23.662420 29.161430 39.081200
158 2 22.184700 31.418080 39.089400
159 2 20.918900 29.011740 39.089100
160 2 23.362390 9.238580 41.344800
161 2 22.867540 17.177300 39.146100
162 2 24.340680 16.466030 41.374300
163 2 22.838180 18.780670 41.383300
164 2 21.583870 16.309930 41.395300
165 2 22.400550 26.703120 39.112400
166 2 23.877420 26.029690 41.337900
167 2 22.366430 28.303830 41.350400
168 2 21.082620 25.880120 41.357500
169 2 23.093730 13.984700 41.370100
170 2 22.597520 23.567730 41.361300
171 2 22.146920 32.914560 41.302500
172 3 26.757450 18.033660 30.243000
173 3 25.205910 20.414620 30.185100
174 3 23.905920 17.864090 30.201600
175 3 25.451160 15.564900 30.279000
176 3 26.944860 15.099700 32.472200
177 3 25.415890 17.258390 32.413800
178 3 24.212050 14.749330 32.467300
179 3 24.908930 25.288460 30.255800
180 3 26.488760 24.574460 32.374900
181 3 24.912920 26.773400 32.476900
182 3 23.679960 24.380600 32.411500
183 3 25.736590 14.064340 34.608800
184 3 24.387100 11.758750 34.730700
185 3 25.209740 22.076500 32.386400
186 3 26.713360 21.364620 34.592800
187 3 25.200960 23.696260 34.597200
188 3 23.915150 21.196040 34.612100
189 3 25.848990 11.050290 36.929200
190 3 25.394900 18.895030 34.625900
191 3 26.892340 18.203550 36.863900
192 3 25.409980 20.502820 36.855100
193 3 24.145830 18.021060 36.878800
194 3 24.906590 28.340520 34.672700
195 3 26.494350 27.792570 36.769700
196 3 24.886090 29.929820 36.888400
197 3 23.688830 27.572330 36.859200
198 3 25.685550 15.676450 36.848600
199 2 27.164300 14.969010 39.060300
200 2 25.630590 17.311700 39.107300
201 2 24.381950 14.864510 39.126100
202 3 25.213630 25.313640 36.820600
203 2 26.644190 24.572190 39.097700
204 2 25.195250 26.917680 39.048800
205 2 23.905530 24.421360 39.098000
206 2 25.905870 12.565310 39.081200
207 2 27.363880 11.858110 41.295300
208 2 25.848950 14.155880 41.344400
209 2 24.611040 11.656840 41.316400
210 2 25.374180 22.099140 39.117800
211 2 26.847720 21.399400 41.354400
212 2 25.354250 23.708100 41.358100
213 2 24.091310 21.241520 41.372800
214 2 24.853030 31.510260 39.116300
215 2 26.443280 30.973950 41.240300
216 2 24.809600 33.015350 41.320900
217 2 23.623550 30.732450 41.323100
218 2 26.091640 9.398910 41.324500
219 2 25.604870 18.927960 41.352200
220 2 25.166550 28.514360 41.284300
221 3 26.494330 22.949230 30.223000
222 3 27.984830 20.551950 30.244500
223 3 29.362000 19.879800 32.449300
224 3 28.005150 22.231710 32.371000
225 3 26.684780 19.735490 32.400500
226 3 28.203250 17.463850 32.439700
227 3 29.663870 16.790870 34.627000
228 3 28.173070 19.058250 34.620900
229 3 26.927310 16.605790 34.628600
230 3 29.178040 26.194930 34.682100
231 3 26.507400 26.185050 34.553000
232 3 28.412690 14.430510 34.664600
233 3 29.886960 13.732260 36.878800
234 3 28.417200 15.909450 36.840900
235 3 27.222800 13.359820 36.803600
236 3 27.910190 23.804900 34.649700
237 3 29.422140 23.119290 36.834200
238 3 27.924810 25.440410 36.843200
239 3 26.648210 22.955490 36.871100
240 2 28.691040 12.652210 39.015000
241 2 27.305730 10.340440 39.143000
242 3 28.217690 20.681110 36.808400
243 2 29.690370 19.982530 39.031100
244 2 28.135230 22.264070 39.092200
245 2 26.896820 19.809190 39.088000
246 2 29.158480 29.375060 39.125400
247 2 26.471260 29.389150 38.997100
248 2 28.753850 9.631020 41.364400
249 2 28.368650 17.500650 39.091200
250 2 29.825840 16.791950 41.325000
251 2 28.363500 19.102780 41.322700
252 2 27.098360 16.601640 41.337600
253 2 27.903850 27.046010 39.063300
254 2 29.393710 26.353930 41.282800
255 2 27.874050 28.635030 41.292600
256 2 26.617520 26.172090 41.331000
257 2 28.620880 14.260470 41.282400
258 2 28.119190 23.873430 41.330000
259 3 30.601460 23.984700 34.671000
260 3 29.508190 21.546140 34.538500
261 3 30.818060 19.202180 34.643100
262 3 32.285550 18.510830 36.863300
263 3 30.991170 20.851600 36.751500
264 3 29.655260 18.363470 36.833800
265 3 29.178280 27.783920 36.897500
266 3 31.133900 16.097040 36.841000
267 2 32.592950 15.402540 39.074700
268 2 31.115160 17.664120 39.056700
269 2 29.885840 15.205700 39.061000
270 3 30.670150 25.580280 36.819600
271 2 32.123250 24.901900 39.038800
272 2 30.655290 27.176590 39.046700
273 2 29.423660 24.752710 39.048400
274 2 31.352690 13.030590 39.107100
275 2 32.805520 12.330380 41.348400
276 2 31.330690 14.499240 41.292600
277 2 30.142400 11.945800 41.235800
278 2 30.885780 22.423040 39.050700
279 2 32.327010 21.724710 41.288300
280 2 30.881390 24.048830 41.278800
281 2 29.596700 21.559790 41.324400
282 2 29.118210 30.961230 41.358000
283 2 31.142630 19.278170 41.263500
284 2 30.623990 28.765430 41.282100
285 3 32.063450 23.314390 36.881900
286 2 33.508260 22.635580 39.103100
287 2 32.452870 20.161950 38.979800
288 2 33.733500 17.821670 39.096100
289 2 35.116280 17.155120 41.293200
290 2 33.884040 19.477720 41.223400
291 2 32.551110 16.963310 41.302600
292 2 32.097410 26.491620 41.270800
293 2 34.020840 14.710280 41.310800
294 2 33.560210 24.223670 41.269200
295 2 10.449090 20.568820 41.455400
296 2 34.894090 21.971800 41.293900
297 2 13.534330 12.711480 43.637400
298 2 12.044330 15.023030 43.656600
299 2 10.825820 12.605370 43.671400
300 2 13.000060 22.282480 43.598700
301 2 11.554040 24.587260 43.587900
302 2 10.311210 22.151570 43.605600
303 2 12.307840 10.388200 43.686200
304 2 11.788120 19.798250 43.626300
305 2 16.655560 8.171030 43.649400
306 2 15.005090 10.308910 43.561400
307 2 16.010640 17.629960 43.642800
308 2 14.527440 19.944310 43.645000
309 2 13.220060 17.490420 43.612500
310 2 15.519490 27.199370 43.564200
311 2 14.077170 29.474910 43.561500
312 2 12.810200 27.031750 43.569200
313 2 14.790620 15.165570 43.657700
314 2 14.253040 24.744130 43.587100
315 2 19.042410 12.988370 43.629800
316 2 17.532990 15.282800 43.639000
317 2 16.268450 12.784820 43.601100
318 2 18.534010 22.555280 43.635200
319 2 17.027900 24.875030 43.612000
320 2 15.768850 22.415170 43.629400
321 2 18.073860 32.130120 43.535500
322 2 15.408580 31.817300 43.605300
323 2 17.789160 10.538630 43.586200
324 2 17.282070 20.088970 43.649300
325 2 16.833580 29.630880 43.547700
326 2 22.070750 8.382030 43.577100
327 2 20.554100 10.645720 43.570800
328 2 19.335400 8.237880 43.587700
329 2 21.543020 17.918700 43.637000
330 2 20.040890 20.231960 43.639900
331 2 18.776650 17.762310 43.638300
332 2 21.047440 27.504900 43.589000
333 2 19.546260 29.859360 43.541600
334 2 18.309370 27.327560 43.590900
335 2 20.293130 15.451430 43.642000
336 2 19.799970 25.016300 43.619700
337 2 24.554770 13.277170 43.595600
338 2 23.050490 15.597060 43.625800
339 2 21.801410 13.124040 43.615200
340 2 24.055560 22.850360 43.616400
341 2 22.556510 25.179490 43.600100
342 2 21.301460 22.701810 43.626800
343 2 23.560120 32.481630 43.562200
344 2 20.820320 32.337340 43.566900
345 2 23.310770 10.793130 43.558300
346 2 22.800860 20.383310 43.633500
347 2 22.311210 30.003370 43.581900
348 2 27.532230 8.691820 43.547100
349 2 26.062040 10.951630 43.534400
350 2 24.804970 8.533500 43.562400
351 2 27.072320 18.216290 43.590400
352 2 25.561510 20.530990 43.613300
353 2 24.307070 18.070370 43.620800
354 2 26.560370 27.772890 43.565500
355 2 25.077550 30.153450 43.518000
356 2 23.821460 27.653490 43.574000
357 2 25.805930 15.756400 43.606800
358 2 25.311950 25.313990 43.598100
359 2 30.065660 13.555290 43.517100
360 2 28.567290 15.892470 43.573700
361 2 27.303610 13.449560 43.573200
362 2 29.578650 23.157530 43.569900
363 2 28.079380 25.469940 43.570500
364 2 26.819910 23.002040 43.599700
365 2 29.005450 32.543300 43.586700
366 2 26.317840 32.561060 43.508400
367 2 28.805290 11.152500 43.516100
368 2 28.320050 20.688380 43.592900
369 2 27.796670 30.222350 43.524100
370 2 31.567490 11.236220 43.462300
371 2 30.190060 8.919300 43.583900
372 2 32.596010 18.561850 43.515700
373 2 31.088050 20.845060 43.558700
374 2 29.827910 18.390040 43.563000
375 2 32.052450 28.062220 43.504000
376 2 30.554990 30.351390 43.513800
377 2 29.344650 27.941740 43.520800
378 2 31.313280 16.088850 43.564700
379 2 30.844470 25.636180 43.519600
380 2 35.349660 13.968800 43.536700
381 2 34.094090 16.262590 43.535800
382 2 32.760350 13.798070 43.537600
383 2 34.924350 23.501980 43.481600
384 2 33.534240 25.777740 43.500100
385 2 32.330800 23.312780 43.524100
386 2 34.204360 11.596350 43.590000
387 2 33.876060 21.015310 43.515200
388 2 10.455400 17.368570 43.593000
389 2 9.208630 19.756890 43.656500
390 2 35.203310 18.714220 43.469600
391 2 9.462660 14.916570 43.685100
392 4 1.502460 0.865528 28.125300
3018 4 47.66236 0.86553 28.12530
3019 4 93.82226 0.86553 28.12530
393 4 0.070640 3.362170 28.126800
3020 4 46.23054 3.36217 28.12680
3021 4 92.39044 3.36217 28.12680
394 4 0.062594 0.029950 25.874600
3022 4 46.22249 0.02995 25.87460
3023 4 92.38239 0.02995 25.87460
395 4 1.516610 2.533900 25.879100
3024 4 47.67651 2.53390 25.87910
3025 4 93.83641 2.53390 25.87910
396 4 0.066050 1.693090 23.507900
3026 4 46.22595 1.69309 23.50790
3027 4 92.38585 1.69309 23.50790
397 4 1.518300 4.195570 23.514200
3028 4 47.67820 4.19557 23.51420
3029 4 93.83810 4.19557 23.51420
398 4 4.386280 0.867442 28.127600
3030 4 50.54618 0.86744 28.12760
3031 4 96.70608 0.86744 28.12760
399 4 2.956610 3.366320 28.131400
3032 4 49.11651 3.36632 28.13140
3033 4 95.27641 3.36632 28.13140
400 4 2.945590 0.034841 25.875900
3034 4 49.10549 0.03484 25.87590
3035 4 95.26539 0.03484 25.87590
401 4 4.402150 2.538290 25.884100
3036 4 50.56205 2.53829 25.88410
3037 4 96.72195 2.53829 25.88410
402 4 2.950120 1.697390 23.510800
3038 4 49.11002 1.69739 23.51080
3039 4 95.26992 1.69739 23.51080
403 4 4.404240 4.198970 23.522100
3040 4 50.56414 4.19897 23.52210
3041 4 96.72404 4.19897 23.52210
404 4 7.270190 0.864369 28.130100
3042 4 53.43009 0.86437 28.13010
3043 4 99.58999 0.86437 28.13010
405 4 5.842990 3.366620 28.139200
3044 4 52.00289 3.36662 28.13920
3045 4 98.16279 3.36662 28.13920
406 4 5.828220 0.036619 25.877600
3046 4 51.98812 0.03662 25.87760
3047 4 98.14802 0.03662 25.87760
407 4 7.285800 2.538090 25.888900
3048 4 53.44570 2.53809 25.88890
3049 4 99.60560 2.53809 25.88890
408 4 5.833330 1.699650 23.513800
3050 4 51.99323 1.69965 23.51380
3051 4 98.15313 1.69965 23.51380
409 4 7.287780 4.200310 23.529600
3052 4 53.44768 4.20031 23.52960
3053 4 99.60758 4.20031 23.52960
410 4 10.155600 0.857743 28.130900
3054 4 56.31550 0.85774 28.13090
3055 4 102.47540 0.85774 28.13090
411 4 8.727730 3.359320 28.145900
3056 4 54.88763 3.35932 28.14590
3057 4 101.04753 3.35932 28.14590
412 4 8.711590 0.035844 25.878200
3058 4 54.87149 0.03584 25.87820
3059 4 101.03139 0.03584 25.87820
413 4 10.169200 2.535930 25.891000
3060 4 56.32910 2.53593 25.89100
3061 4 102.48900 2.53593 25.89100
414 4 8.715990 1.700700 23.515800
3062 4 54.87589 1.70070 23.51580
3063 4 101.03579 1.70070 23.51580
415 4 10.169700 4.202140 23.535200
3064 4 56.32960 4.20214 23.53520
3065 4 102.48950 4.20214 23.53520
416 4 13.042700 0.844635 28.131200
3066 4 59.20260 0.84464 28.13120
3067 4 105.36250 0.84464 28.13120
417 4 11.615500 3.345950 28.147600
3068 4 57.77540 3.34595 28.14760
3069 4 103.93530 3.34595 28.14760
418 4 11.595400 0.030998 25.877800
3070 4 57.75530 0.03100 25.87780
3071 4 103.91520 0.03100 25.87780
419 4 13.051600 2.526130 25.889700
3072 4 59.21150 2.52613 25.88970
3073 4 105.37140 2.52613 25.88970
420 4 11.597200 1.698470 23.515600
3074 4 57.75710 1.69847 23.51560
3075 4 103.91700 1.69847 23.51560
421 4 13.048800 4.197250 23.533100
3076 4 59.20870 4.19725 23.53310
3077 4 105.36860 4.19725 23.53310
422 4 15.934500 0.825908 28.131300
3078 4 62.09440 0.82591 28.13130
3079 4 108.25430 0.82591 28.13130
423 4 14.511600 3.318180 28.144200
3080 4 60.67150 3.31818 28.14420
3081 4 106.83140 3.31818 28.14420
424 4 14.481100 0.020591 25.877500
3082 4 60.64100 0.02059 25.87750
3083 4 106.80090 0.02059 25.87750
425 4 15.941700 2.503990 25.883600
3084 4 62.10160 2.50399 25.88360
3085 4 108.26150 2.50399 25.88360
426 4 14.479300 1.690490 23.513500
3086 4 60.63920 1.69049 23.51350
3087 4 106.79910 1.69049 23.51350
427 4 15.936100 4.178160 23.519500
3088 4 62.09600 4.17816 23.51950
3089 4 108.25590 4.17816 23.51950
428 4 18.826700 0.813709 28.130200
3090 4 64.98660 0.81371 28.13020
3091 4 111.14650 0.81371 28.13020
429 4 17.404400 3.300080 28.136600
3092 4 63.56430 3.30008 28.13660
3093 4 109.72420 3.30008 28.13660
430 4 17.372100 0.006222 25.876600
3094 4 63.53200 0.00622 25.87660
3095 4 109.69190 0.00622 25.87660
431 4 18.835300 2.485860 25.877800
3096 4 64.99520 2.48586 25.87780
3097 4 111.15510 2.48586 25.87780
432 4 17.367800 1.676570 23.508600
3098 4 63.52770 1.67657 23.50860
3099 4 109.68760 1.67657 23.50860
433 4 18.828900 4.159070 23.507000
3100 4 64.98880 4.15907 23.50700
3101 4 111.14870 4.15907 23.50700
434 4 21.716700 0.809923 28.129000
3102 4 67.87660 0.80992 28.12900
3103 4 114.03650 0.80992 28.12900
435 4 20.292900 3.294740 28.130800
3104 4 66.45280 3.29474 28.13080
3105 4 112.61270 3.29474 28.13080
436 4 20.264800 -0.005524 25.875500
3106 4 66.42470 -0.00552 25.87550
3107 4 112.58460 -0.00552 25.87550
437 4 21.726600 2.477140 25.874100
3108 4 67.88650 2.47714 25.87410
3109 4 114.04640 2.47714 25.87410
438 4 20.259900 1.663710 23.504300
3110 4 66.41980 1.66371 23.50430
3111 4 112.57970 1.66371 23.50430
439 4 21.720900 4.148480 23.500200
3112 4 67.88080 4.14848 23.50020
3113 4 114.04070 4.14848 23.50020
440 4 1.525820 5.863030 28.132900
3114 4 47.68572 5.86303 28.13290
3115 4 93.84562 5.86303 28.13290
441 4 0.089822 8.355860 28.133200
3116 4 46.24972 8.35586 28.13320
3117 4 92.40962 8.35586 28.13320
442 4 0.085733 5.030680 25.880700
3118 4 46.24563 5.03068 25.88070
3119 4 92.40553 5.03068 25.88070
443 4 1.542780 7.534080 25.890200
3120 4 47.70268 7.53408 25.89020
3121 4 93.86258 7.53408 25.89020
444 4 0.082229 6.692220 23.515400
3122 4 46.24213 6.69222 23.51540
3123 4 92.40203 6.69222 23.51540
445 4 1.529230 9.193250 23.525700
3124 4 47.68913 9.19325 23.52570
3125 4 93.84903 9.19325 23.52570
446 4 4.415940 5.866260 28.146400
3126 4 50.57584 5.86626 28.14640
3127 4 96.73574 5.86626 28.14640
447 4 2.983160 8.364290 28.147500
3128 4 49.14306 8.36429 28.14750
3129 4 95.30296 8.36429 28.14750
448 4 2.975590 5.037560 25.888900
3130 4 49.13549 5.03756 25.88890
3131 4 95.29539 5.03756 25.88890
449 4 4.436880 7.539180 25.910000
3132 4 50.59678 7.53918 25.91000
3133 4 96.75668 7.53918 25.91000
450 4 2.969160 6.695850 23.525400
3134 4 49.12906 6.69585 23.52540
3135 4 95.28896 6.69585 23.52540
451 4 4.410780 9.192260 23.543600
3136 4 50.57068 9.19226 23.54360
3137 4 96.73058 9.19226 23.54360
452 4 7.308010 5.865030 28.168900
3138 4 53.46791 5.86503 28.16890
3139 4 99.62781 5.86503 28.16890
453 4 5.877000 8.364180 28.181500
3140 4 52.03690 8.36418 28.18150
3141 4 98.19680 8.36418 28.18150
454 4 5.865870 5.042070 25.903400
3142 4 52.02577 5.04207 25.90340
3143 4 98.18567 5.04207 25.90340
455 4 7.331750 7.542080 25.953200
3144 4 53.49165 7.54208 25.95320
3145 4 99.65155 7.54208 25.95320
456 4 5.855130 6.697070 23.543900
3146 4 52.01503 6.69707 23.54390
3147 4 98.17493 6.69707 23.54390
457 4 7.284430 9.186290 23.556400
3148 4 53.44433 9.18629 23.55640
3149 4 99.60423 9.18629 23.55640
458 4 10.191500 5.850570 28.186300
3150 4 56.35140 5.85057 28.18630
3151 4 102.51130 5.85057 28.18630
459 4 8.805680 8.387110 28.298400
3152 4 54.96558 8.38711 28.29840
3153 4 101.12548 8.38711 28.29840
460 4 8.749790 5.039750 25.914500
3154 4 54.90969 5.03975 25.91450
3155 4 101.06959 5.03975 25.91450
461 4 10.200400 7.541590 25.959000
3156 4 56.36030 7.54159 25.95900
3157 4 102.52020 7.54159 25.95900
462 4 8.734130 6.698970 23.557600
3158 4 54.89403 6.69897 23.55760
3159 4 101.05393 6.69897 23.55760
463 4 10.164500 9.183660 23.535800
3160 4 56.32440 9.18366 23.53580
3161 4 102.48430 9.18366 23.53580
464 4 13.111000 5.806370 28.191400
3162 4 59.27090 5.80637 28.19140
3163 4 105.43080 5.80637 28.19140
465 4 11.746500 8.292190 28.230300
3164 4 57.90640 8.29219 28.23030
3165 4 104.06630 8.29219 28.23030
466 4 11.632600 5.038500 25.922100
3166 4 57.79250 5.03850 25.92210
3167 4 103.95240 5.03850 25.92210
467 4 13.121800 7.503890 25.915000
3168 4 59.28170 7.50389 25.91500
3169 4 105.44160 7.50389 25.91500
468 4 11.615100 6.698810 23.556500
3170 4 57.77500 6.69881 23.55650
3171 4 103.93490 6.69881 23.55650
469 4 13.078300 9.166920 23.489000
3172 4 59.23820 9.16692 23.48900
3173 4 105.39810 9.16692 23.48900
470 4 16.007600 5.784690 28.162300
3174 4 62.16750 5.78469 28.16230
3175 4 108.32740 5.78469 28.16230
471 4 14.673300 8.277820 28.204400
3176 4 60.83320 8.27782 28.20440
3177 4 106.99310 8.27782 28.20440
472 4 14.524500 5.008970 25.906400
3178 4 60.68440 5.00897 25.90640
3179 4 106.84430 5.00897 25.90640
473 4 16.027100 7.477790 25.890400
3180 4 62.18700 7.47779 25.89040
3181 4 108.34690 7.47779 25.89040
474 4 14.512900 6.679480 23.531200
3182 4 60.67280 6.67948 23.53120
3183 4 106.83270 6.67948 23.53120
475 4 15.991500 9.149520 23.472900
3184 4 62.15140 9.14952 23.47290
3185 4 108.31130 9.14952 23.47290
476 4 18.888000 5.776980 28.138000
3186 4 65.04790 5.77698 28.13800
3187 4 111.20780 5.77698 28.13800
477 4 17.533400 8.281870 28.189200
3188 4 63.69330 8.28187 28.18920
3189 4 109.85320 8.28187 28.18920
478 4 17.417000 4.979850 25.885400
3190 4 63.57690 4.97985 25.88540
3191 4 109.73680 4.97985 25.88540
479 4 18.906400 7.457900 25.879500
3192 4 65.06630 7.45790 25.87950
3193 4 111.22620 7.45790 25.87950
480 4 17.408500 6.656510 23.510000
3194 4 63.56840 6.65651 23.51000
3195 4 109.72830 6.65651 23.51000
481 4 18.885100 9.135110 23.479000
3196 4 65.04500 9.13511 23.47900
3197 4 111.20490 9.13511 23.47900
482 4 21.764200 5.784540 28.128200
3198 4 67.92410 5.78454 28.12820
3199 4 114.08400 5.78454 28.12820
483 4 20.383500 8.269660 28.141600
3200 4 66.54340 8.26966 28.14160
3201 4 112.70330 8.26966 28.14160
484 4 20.307300 4.966070 25.874300
3202 4 66.46720 4.96607 25.87430
3203 4 112.62710 4.96607 25.87430
485 4 21.781200 7.456230 25.869100
3204 4 67.94110 7.45623 25.86910
3205 4 114.10100 7.45623 25.86910
486 4 20.297900 6.641730 23.499300
3206 4 66.45780 6.64173 23.49930
3207 4 112.61770 6.64173 23.49930
487 4 21.759900 9.135270 23.491400
3208 4 67.91980 9.13527 23.49140
3209 4 114.07970 9.13527 23.49140
488 4 1.540460 10.856800 28.146700
3210 4 47.70036 10.85680 28.14670
3211 4 93.86026 10.85680 28.14670
489 4 0.091935 13.346300 28.139100
3212 4 46.25184 13.34630 28.13910
3213 4 92.41173 13.34630 28.13910
490 4 0.100881 10.025700 25.889300
3214 4 46.26078 10.02570 25.88930
3215 4 92.42068 10.02570 25.88930
491 4 1.550790 12.526200 25.903800
3216 4 47.71069 12.52620 25.90380
3217 4 93.87059 12.52620 25.90380
492 4 0.085699 11.686200 23.522500
3218 4 46.24560 11.68620 23.52250
3219 4 92.40550 11.68620 23.52250
493 4 1.526890 14.183000 23.530400
3220 4 47.68679 14.18300 23.53040
3221 4 93.84669 14.18300 23.53040
494 4 4.435640 10.866700 28.181600
3222 4 50.59554 10.86670 28.18160
3223 4 96.75544 10.86670 28.18160
495 4 2.988970 13.358300 28.168800
3224 4 49.14887 13.35830 28.16880
3225 4 95.30877 13.35830 28.16880
496 4 2.996980 10.038000 25.910300
3226 4 49.15688 10.03800 25.91030
3227 4 95.31678 10.03800 25.91030
497 4 4.450400 12.540800 25.954200
3228 4 50.61030 12.54080 25.95420
3229 4 96.77020 12.54080 25.95420
498 4 2.973740 11.692500 23.544700
3230 4 49.13364 11.69250 23.54470
3231 4 95.29354 11.69250 23.54470
499 4 4.415560 14.183600 23.561000
3232 4 50.57546 14.18360 23.56100
3233 4 96.73536 14.18360 23.56100
500 4 7.348220 10.870400 28.290500
3234 4 53.50812 10.87040 28.29050
3235 4 99.66802 10.87040 28.29050
501 4 5.932490 13.376700 28.298200
3236 4 52.09239 13.37670 28.29820
3237 4 98.25229 13.37670 28.29820
502 4 5.880590 10.034700 25.950400
3238 4 52.04049 10.03470 25.95040
3239 4 98.20039 10.03470 25.95040
503 4 7.301390 12.511100 25.932100
3240 4 53.46129 12.51110 25.93210
3241 4 99.62119 12.51110 25.93210
504 4 5.844120 11.682300 23.557200
3242 4 52.00402 11.68230 23.55720
3243 4 98.16392 11.68230 23.55720
505 4 7.283020 14.175200 23.543700
3244 4 53.44292 14.17520 23.54370
3245 4 99.60282 14.17520 23.54370
506 4 10.300800 10.856900 28.088100
3246 4 56.46070 10.85690 28.08810
3247 4 102.62060 10.85690 28.08810
507 4 8.841990 13.382500 28.091700
3248 4 55.00189 13.38250 28.09170
3249 4 101.16179 13.38250 28.09170
508 4 8.739190 10.018900 25.931000
3250 4 54.89909 10.01890 25.93100
3251 4 101.05899 10.01890 25.93100
509 4 10.222600 12.523400 25.774600
3252 4 56.38250 12.52340 25.77460
3253 4 102.54240 12.52340 25.77460
510 4 8.717430 11.674900 23.521400
3254 4 54.87733 11.67490 23.52140
3255 4 101.03723 11.67490 23.52140
511 4 10.166700 14.190600 23.461800
3256 4 56.32660 14.19060 23.46180
3257 4 102.48650 14.19060 23.46180
512 4 13.232300 10.820000 28.032100
3258 4 59.39220 10.82000 28.03210
3259 4 105.55210 10.82000 28.03210
513 4 11.779800 13.396000 27.983000
3260 4 57.93970 13.39600 27.98300
3261 4 104.09960 13.39600 27.98300
514 4 11.679800 9.986900 25.820600
3262 4 57.83970 9.98690 25.82060
3263 4 103.99960 9.98690 25.82060
515 4 13.149900 12.504800 25.718000
3264 4 59.30980 12.50480 25.71800
3265 4 105.46970 12.50480 25.71800
516 4 11.625800 11.669500 23.452200
3266 4 57.78570 11.66950 23.45220
3267 4 103.94560 11.66950 23.45220
517 4 13.073000 14.185200 23.411700
3268 4 59.23290 14.18520 23.41170
3269 4 105.39280 14.18520 23.41170
518 4 16.147300 10.862100 28.018800
3270 4 62.30720 10.86210 28.01880
3271 4 108.46710 10.86210 28.01880
519 4 14.696700 13.396700 27.953500
3272 4 60.85660 13.39670 27.95350
3273 4 107.01650 13.39670 27.95350
520 4 14.609500 9.964660 25.787400
3274 4 60.76940 9.96466 25.78740
3275 4 106.92930 9.96466 25.78740
521 4 16.068300 12.497100 25.704200
3276 4 62.22820 12.49710 25.70420
3277 4 108.38810 12.49710 25.70420
522 4 14.540500 11.655100 23.422000
3278 4 60.70040 11.65510 23.42200
3279 4 106.86030 11.65510 23.42200
523 4 15.986300 14.169700 23.394200
3280 4 62.14620 14.16970 23.39420
3281 4 108.30610 14.16970 23.39420
524 4 19.013000 10.760100 28.170100
3282 4 65.17290 10.76010 28.17010
3283 4 111.33280 10.76010 28.17010
525 4 17.610700 13.382200 28.007900
3284 4 63.77060 13.38220 28.00790
3285 4 109.93050 13.38220 28.00790
526 4 17.521400 9.947790 25.818600
3286 4 63.68130 9.94779 25.81860
3287 4 109.84120 9.94779 25.81860
527 4 18.968500 12.440900 25.812600
3288 4 65.12840 12.44090 25.81260
3289 4 111.28830 12.44090 25.81260
528 4 17.451900 11.636700 23.435400
3290 4 63.61180 11.63670 23.43540
3291 4 109.77170 11.63670 23.43540
529 4 18.882800 14.138400 23.446800
3292 4 65.04270 14.13840 23.44680
3293 4 111.20260 14.13840 23.44680
530 4 21.847000 10.784900 28.140800
3294 4 68.00690 10.78490 28.14080
3295 4 114.16680 10.78490 28.14080
531 4 20.451600 13.276600 28.184500
3296 4 66.61150 13.27660 28.18450
3297 4 112.77140 13.27660 28.18450
532 4 20.381100 9.948780 25.867600
3298 4 66.54100 9.94878 25.86760
3299 4 112.70090 9.94878 25.86760
533 4 21.815900 12.461600 25.874400
3300 4 67.97580 12.46160 25.87440
3301 4 114.13570 12.46160 25.87440
534 4 20.332700 11.631700 23.475000
3302 4 66.49260 11.63170 23.47500
3303 4 112.65250 11.63170 23.47500
535 4 21.751100 14.143300 23.494800
3304 4 67.91100 14.14330 23.49480
3305 4 114.07090 14.14330 23.49480
536 4 1.528660 15.845300 28.145800
3306 4 47.68856 15.84530 28.14580
3307 4 93.84846 15.84530 28.14580
537 4 0.074293 18.338000 28.130700
3308 4 46.23419 18.33800 28.13070
3309 4 92.39409 18.33800 28.13070
538 4 0.091826 15.011400 25.889200
3310 4 46.25173 15.01140 25.88920
3311 4 92.41163 15.01140 25.88920