
0 atoms
1 atom types

-10 110 xlo xhi
-10 110 ylo yhi
-10 30.0000 zlo zhi

Masses

1 196.9665


