ITEM: TIMESTEP
0
ITEM: NUMBER OF ATOMS
434
ITEM: BOX BOUNDS pp pp pp
0 62
0 14
-1 1
ITEM: ATOMS id type xs ys zs
1 1 0.00806452 0.0357143 0.5
3 1 0.0403226 0.0357143 0.5
5 1 0.0725806 0.0357143 0.5
7 1 0.104839 0.0357143 0.5
9 1 0.137097 0.0357143 0.5
11 1 0.169355 0.0357143 0.5
13 1 0.201613 0.0357143 0.5
15 1 0.233871 0.0357143 0.5
17 1 0.266129 0.0357143 0.5
19 1 0.298387 0.0357143 0.5
21 1 0.330645 0.0357143 0.5
23 1 0.362903 0.0357143 0.5
25 1 0.395161 0.0357143 0.5
27 1 0.427419 0.0357143 0.5
29 1 0.459677 0.0357143 0.5
31 1 0.491935 0.0357143 0.5
33 1 0.524194 0.0357143 0.5
35 1 0.556452 0.0357143 0.5
37 1 0.58871 0.0357143 0.5
39 1 0.620968 0.0357143 0.5
41 1 0.653226 0.0357143 0.5
43 1 0.685484 0.0357143 0.5
45 1 0.717742 0.0357143 0.5
47 1 0.75 0.0357143 0.5
49 1 0.782258 0.0357143 0.5
51 1 0.814516 0.0357143 0.5
53 1 0.846774 0.0357143 0.5
55 1 0.879032 0.0357143 0.5
57 1 0.91129 0.0357143 0.5
59 1 0.943548 0.0357143 0.5
61 1 0.975806 0.0357143 0.5
63 1 0.00806452 0.178571 0.5
2 1 0.0241935 0.107143 0.5
65 1 0.0403226 0.178571 0.5
4 1 0.0564516 0.107143 0.5
6 1 0.0887097 0.107143 0.5
67 2 0.0725806 0.178571 0.5
69 2 0.104839 0.178571 0.5
8 1 0.120968 0.107143 0.5
10 1 0.153226 0.107143 0.5
71 2 0.137097 0.178571 0.5
73 1 0.169355 0.178571 0.5
12 1 0.185484 0.107143 0.5
75 2 0.201613 0.178571 0.5
14 1 0.217742 0.107143 0.5
77 1 0.233871 0.178571 0.5
16 1 0.25 0.107143 0.5
79 2 0.266129 0.178571 0.5
18 1 0.282258 0.107143 0.5
20 1 0.314516 0.107143 0.5
81 1 0.298387 0.178571 0.5
83 2 0.330645 0.178571 0.5
22 1 0.346774 0.107143 0.5
85 1 0.362903 0.178571 0.5
24 1 0.379032 0.107143 0.5
87 1 0.395161 0.178571 0.5
26 1 0.41129 0.107143 0.5
89 1 0.427419 0.178571 0.5
28 1 0.443548 0.107143 0.5
30 1 0.475806 0.107143 0.5
91 2 0.459677 0.178571 0.5
93 1 0.491935 0.178571 0.5
32 1 0.508065 0.107143 0.5
34 1 0.540323 0.107143 0.5
95 2 0.524194 0.178571 0.5
97 1 0.556452 0.178571 0.5
36 1 0.572581 0.107143 0.5
99 1 0.58871 0.178571 0.5
38 1 0.604839 0.107143 0.5
101 1 0.620968 0.178571 0.5
40 1 0.637097 0.107143 0.5
103 2 0.653226 0.178571 0.5
42 1 0.669355 0.107143 0.5
44 1 0.701613 0.107143 0.5
105 1 0.685484 0.178571 0.5
107 2 0.717742 0.178571 0.5
46 1 0.733871 0.107143 0.5
48 1 0.766129 0.107143 0.5
109 1 0.75 0.178571 0.5
111 1 0.782258 0.178571 0.5
50 1 0.798387 0.107143 0.5
113 1 0.814516 0.178571 0.5
52 1 0.830645 0.107143 0.5
54 1 0.862903 0.107143 0.5
115 2 0.846774 0.178571 0.5
117 2 0.879032 0.178571 0.5
56 1 0.895161 0.107143 0.5
58 1 0.927419 0.107143 0.5
119 2 0.91129 0.178571 0.5
121 1 0.943548 0.178571 0.5
60 1 0.959677 0.107143 0.5
123 1 0.975806 0.178571 0.5
62 1 0.991935 0.107143 0.5
64 1 0.0241935 0.25 0.5
66 1 0.0564516 0.25 0.5
68 2 0.0887097 0.25 0.5
70 2 0.120968 0.25 0.5
72 2 0.153226 0.25 0.5
74 1 0.185484 0.25 0.5
76 2 0.217742 0.25 0.5
78 1 0.25 0.25 0.5
80 2 0.282258 0.25 0.5
82 1 0.314516 0.25 0.5
84 2 0.346774 0.25 0.5
86 1 0.379032 0.25 0.5
88 1 0.41129 0.25 0.5
90 1 0.443548 0.25 0.5
92 2 0.475806 0.25 0.5
94 1 0.508065 0.25 0.5
96 2 0.540323 0.25 0.5
98 1 0.572581 0.25 0.5
100 1 0.604839 0.25 0.5
102 1 0.637097 0.25 0.5
104 2 0.669355 0.25 0.5
106 1 0.701613 0.25 0.5
108 2 0.733871 0.25 0.5
110 1 0.766129 0.25 0.5
112 1 0.798387 0.25 0.5
114 1 0.830645 0.25 0.5
116 2 0.862903 0.25 0.5
118 2 0.895161 0.25 0.5
120 2 0.927419 0.25 0.5
122 1 0.959677 0.25 0.5
124 1 0.991935 0.25 0.5
125 1 0.00806452 0.321429 0.5
126 1 0.0241935 0.392857 0.5
127 1 0.0403226 0.321429 0.5
128 1 0.0564516 0.392857 0.5
129 2 0.0725806 0.321429 0.5
130 2 0.0887097 0.392857 0.5
131 1 0.104839 0.321429 0.5
132 1 0.120968 0.392857 0.5
133 1 0.137097 0.321429 0.5
134 1 0.153226 0.392857 0.5
135 1 0.169355 0.321429 0.5
136 1 0.185484 0.392857 0.5
137 2 0.201613 0.321429 0.5
138 2 0.217742 0.392857 0.5
139 1 0.233871 0.321429 0.5
140 1 0.25 0.392857 0.5
141 2 0.266129 0.321429 0.5
142 2 0.282258 0.392857 0.5
143 1 0.298387 0.321429 0.5
144 1 0.314516 0.392857 0.5
145 2 0.330645 0.321429 0.5
146 2 0.346774 0.392857 0.5
147 1 0.362903 0.321429 0.5
148 1 0.379032 0.392857 0.5
149 1 0.395161 0.321429 0.5
150 1 0.41129 0.392857 0.5
151 1 0.427419 0.321429 0.5
152 1 0.443548 0.392857 0.5
153 2 0.459677 0.321429 0.5
154 2 0.475806 0.392857 0.5
155 1 0.491935 0.321429 0.5
156 1 0.508065 0.392857 0.5
157 2 0.524194 0.321429 0.5
158 2 0.540323 0.392857 0.5
159 1 0.556452 0.321429 0.5
160 1 0.572581 0.392857 0.5
161 1 0.58871 0.321429 0.5
162 1 0.604839 0.392857 0.5
163 1 0.620968 0.321429 0.5
164 1 0.637097 0.392857 0.5
165 2 0.653226 0.321429 0.5
166 2 0.669355 0.392857 0.5
167 1 0.685484 0.321429 0.5
168 1 0.701613 0.392857 0.5
169 2 0.717742 0.321429 0.5
170 2 0.733871 0.392857 0.5
171 1 0.75 0.321429 0.5
172 1 0.766129 0.392857 0.5
173 1 0.782258 0.321429 0.5
174 1 0.798387 0.392857 0.5
175 1 0.814516 0.321429 0.5
176 1 0.830645 0.392857 0.5
177 1 0.846774 0.321429 0.5
178 1 0.862903 0.392857 0.5
179 1 0.879032 0.321429 0.5
180 1 0.895161 0.392857 0.5
181 2 0.91129 0.321429 0.5
182 2 0.927419 0.392857 0.5
183 1 0.943548 0.321429 0.5
184 1 0.959677 0.392857 0.5
185 1 0.975806 0.321429 0.5
186 1 0.991935 0.392857 0.5
187 1 0.00806452 0.464286 0.5
189 1 0.0403226 0.464286 0.5
191 2 0.0725806 0.464286 0.5
193 1 0.104839 0.464286 0.5
195 1 0.137097 0.464286 0.5
197 1 0.169355 0.464286 0.5
199 2 0.201613 0.464286 0.5
201 2 0.233871 0.464286 0.5
203 2 0.266129 0.464286 0.5
205 1 0.298387 0.464286 0.5
207 2 0.330645 0.464286 0.5
209 1 0.362903 0.464286 0.5
211 2 0.395161 0.464286 0.5
213 1 0.427419 0.464286 0.5
215 2 0.459677 0.464286 0.5
217 1 0.491935 0.464286 0.5
219 2 0.524194 0.464286 0.5
221 1 0.556452 0.464286 0.5
223 2 0.58871 0.464286 0.5
225 1 0.620968 0.464286 0.5
227 2 0.653226 0.464286 0.5
229 1 0.685484 0.464286 0.5
231 2 0.717742 0.464286 0.5
233 2 0.75 0.464286 0.5
235 2 0.782258 0.464286 0.5
237 1 0.814516 0.464286 0.5
239 2 0.846774 0.464286 0.5
241 2 0.879032 0.464286 0.5
243 2 0.91129 0.464286 0.5
245 1 0.943548 0.464286 0.5
247 1 0.975806 0.464286 0.5
188 1 0.0241935 0.535714 0.5
190 1 0.0564516 0.535714 0.5
192 2 0.0887097 0.535714 0.5
194 1 0.120968 0.535714 0.5
196 1 0.153226 0.535714 0.5
198 1 0.185484 0.535714 0.5
200 2 0.217742 0.535714 0.5
202 2 0.25 0.535714 0.5
204 2 0.282258 0.535714 0.5
206 1 0.314516 0.535714 0.5
208 2 0.346774 0.535714 0.5
210 1 0.379032 0.535714 0.5
212 2 0.41129 0.535714 0.5
214 1 0.443548 0.535714 0.5
216 2 0.475806 0.535714 0.5
218 1 0.508065 0.535714 0.5
220 2 0.540323 0.535714 0.5
222 1 0.572581 0.535714 0.5
224 2 0.604839 0.535714 0.5
226 1 0.637097 0.535714 0.5
228 2 0.669355 0.535714 0.5
230 1 0.701613 0.535714 0.5
232 2 0.733871 0.535714 0.5
234 2 0.766129 0.535714 0.5
236 2 0.798387 0.535714 0.5
238 1 0.830645 0.535714 0.5
240 2 0.862903 0.535714 0.5
242 2 0.895161 0.535714 0.5
244 2 0.927419 0.535714 0.5
246 1 0.959677 0.535714 0.5
248 1 0.991935 0.535714 0.5
249 1 0.00806452 0.607143 0.5
250 1 0.0241935 0.678571 0.5
251 1 0.0403226 0.607143 0.5
252 1 0.0564516 0.678571 0.5
253 2 0.0725806 0.607143 0.5
254 2 0.0887097 0.678571 0.5
255 1 0.104839 0.607143 0.5
256 1 0.120968 0.678571 0.5
257 1 0.137097 0.607143 0.5
258 1 0.153226 0.678571 0.5
259 1 0.169355 0.607143 0.5
260 1 0.185484 0.678571 0.5
261 2 0.201613 0.607143 0.5
262 2 0.217742 0.678571 0.5
263 1 0.233871 0.607143 0.5
264 1 0.25 0.678571 0.5
265 2 0.266129 0.607143 0.5
266 2 0.282258 0.678571 0.5
267 1 0.298387 0.607143 0.5
268 1 0.314516 0.678571 0.5
269 2 0.330645 0.607143 0.5
270 2 0.346774 0.678571 0.5
271 1 0.362903 0.607143 0.5
272 1 0.379032 0.678571 0.5
273 2 0.395161 0.607143 0.5
274 2 0.41129 0.678571 0.5
275 1 0.427419 0.607143 0.5
276 1 0.443548 0.678571 0.5
277 2 0.459677 0.607143 0.5
278 2 0.475806 0.678571 0.5
279 1 0.491935 0.607143 0.5
280 1 0.508065 0.678571 0.5
281 2 0.524194 0.607143 0.5
282 2 0.540323 0.678571 0.5
283 1 0.556452 0.607143 0.5
284 1 0.572581 0.678571 0.5
285 2 0.58871 0.607143 0.5
286 2 0.604839 0.678571 0.5
287 1 0.620968 0.607143 0.5
288 1 0.637097 0.678571 0.5
289 2 0.653226 0.607143 0.5
290 2 0.669355 0.678571 0.5
291 1 0.685484 0.607143 0.5
292 1 0.701613 0.678571 0.5
293 2 0.717742 0.607143 0.5
294 2 0.733871 0.678571 0.5
295 1 0.75 0.607143 0.5
296 1 0.766129 0.678571 0.5
297 2 0.782258 0.607143 0.5
298 2 0.798387 0.678571 0.5
299 1 0.814516 0.607143 0.5
300 1 0.830645 0.678571 0.5
301 2 0.846774 0.607143 0.5
302 2 0.862903 0.678571 0.5
303 1 0.879032 0.607143 0.5
304 1 0.895161 0.678571 0.5
305 1 0.91129 0.607143 0.5
306 1 0.927419 0.678571 0.5
307 1 0.943548 0.607143 0.5
308 1 0.959677 0.678571 0.5
309 1 0.975806 0.607143 0.5
310 1 0.991935 0.678571 0.5
311 1 0.00806452 0.75 0.5
313 1 0.0403226 0.75 0.5
315 2 0.0725806 0.75 0.5
317 1 0.104839 0.75 0.5
319 1 0.137097 0.75 0.5
321 1 0.169355 0.75 0.5
323 2 0.201613 0.75 0.5
325 2 0.233871 0.75 0.5
327 2 0.266129 0.75 0.5
329 1 0.298387 0.75 0.5
331 2 0.330645 0.75 0.5
333 2 0.362903 0.75 0.5
335 2 0.395161 0.75 0.5
337 2 0.427419 0.75 0.5
339 2 0.459677 0.75 0.5
341 1 0.491935 0.75 0.5
343 2 0.524194 0.75 0.5
345 2 0.556452 0.75 0.5
347 2 0.58871 0.75 0.5
349 2 0.620968 0.75 0.5
351 2 0.653226 0.75 0.5
353 1 0.685484 0.75 0.5
355 2 0.717742 0.75 0.5
357 2 0.75 0.75 0.5
359 2 0.782258 0.75 0.5
361 1 0.814516 0.75 0.5
363 2 0.846774 0.75 0.5
365 2 0.879032 0.75 0.5
367 2 0.91129 0.75 0.5
369 1 0.943548 0.75 0.5
371 1 0.975806 0.75 0.5
373 1 0.00806452 0.892857 0.5
312 1 0.0241935 0.821429 0.5
375 1 0.0403226 0.892857 0.5
314 1 0.0564516 0.821429 0.5
316 2 0.0887097 0.821429 0.5
377 1 0.0725806 0.892857 0.5
379 1 0.104839 0.892857 0.5
318 1 0.120968 0.821429 0.5
320 1 0.153226 0.821429 0.5
381 1 0.137097 0.892857 0.5
383 1 0.169355 0.892857 0.5
322 1 0.185484 0.821429 0.5
385 1 0.201613 0.892857 0.5
324 2 0.217742 0.821429 0.5
387 1 0.233871 0.892857 0.5
326 2 0.25 0.821429 0.5
389 1 0.266129 0.892857 0.5
328 2 0.282258 0.821429 0.5
330 1 0.314516 0.821429 0.5
391 1 0.298387 0.892857 0.5
393 1 0.330645 0.892857 0.5
332 2 0.346774 0.821429 0.5
395 1 0.362903 0.892857 0.5
334 2 0.379032 0.821429 0.5
397 1 0.395161 0.892857 0.5
336 2 0.41129 0.821429 0.5
399 1 0.427419 0.892857 0.5
338 2 0.443548 0.821429 0.5
340 2 0.475806 0.821429 0.5
401 1 0.459677 0.892857 0.5
403 1 0.491935 0.892857 0.5
342 1 0.508065 0.821429 0.5
344 2 0.540323 0.821429 0.5
405 1 0.524194 0.892857 0.5
407 1 0.556452 0.892857 0.5
346 2 0.572581 0.821429 0.5
409 1 0.58871 0.892857 0.5
348 2 0.604839 0.821429 0.5
411 1 0.620968 0.892857 0.5
350 2 0.637097 0.821429 0.5
413 1 0.653226 0.892857 0.5
352 2 0.669355 0.821429 0.5
354 1 0.701613 0.821429 0.5
415 1 0.685484 0.892857 0.5
417 1 0.717742 0.892857 0.5
356 2 0.733871 0.821429 0.5
358 2 0.766129 0.821429 0.5
419 1 0.75 0.892857 0.5
421 1 0.782258 0.892857 0.5
360 2 0.798387 0.821429 0.5
423 1 0.814516 0.892857 0.5
362 1 0.830645 0.821429 0.5
364 2 0.862903 0.821429 0.5
425 1 0.846774 0.892857 0.5
427 1 0.879032 0.892857 0.5
366 2 0.895161 0.821429 0.5
368 2 0.927419 0.821429 0.5
429 1 0.91129 0.892857 0.5
431 1 0.943548 0.892857 0.5
370 1 0.959677 0.821429 0.5
433 1 0.975806 0.892857 0.5
372 1 0.991935 0.821429 0.5
374 1 0.0241935 0.964286 0.5
376 1 0.0564516 0.964286 0.5
378 1 0.0887097 0.964286 0.5
380 1 0.120968 0.964286 0.5
382 1 0.153226 0.964286 0.5
384 1 0.185484 0.964286 0.5
386 1 0.217742 0.964286 0.5
388 1 0.25 0.964286 0.5
390 1 0.282258 0.964286 0.5
392 1 0.314516 0.964286 0.5
394 1 0.346774 0.964286 0.5
396 1 0.379032 0.964286 0.5
398 1 0.41129 0.964286 0.5
400 1 0.443548 0.964286 0.5
402 1 0.475806 0.964286 0.5
404 1 0.508065 0.964286 0.5
406 1 0.540323 0.964286 0.5
408 1 0.572581 0.964286 0.5
410 1 0.604839 0.964286 0.5
412 1 0.637097 0.964286 0.5
414 1 0.669355 0.964286 0.5
416 1 0.701613 0.964286 0.5
418 1 0.733871 0.964286 0.5
420 1 0.766129 0.964286 0.5
422 1 0.798387 0.964286 0.5
424 1 0.830645 0.964286 0.5
426 1 0.862903 0.964286 0.5
428 1 0.895161 0.964286 0.5
430 1 0.927419 0.964286 0.5
432 1 0.959677 0.964286 0.5
434 1 0.991935 0.964286 0.5
ITEM: TIMESTEP
20
ITEM: NUMBER OF ATOMS
434
ITEM: BOX BOUNDS pp pp pp
0 62
0 14
-1 1
ITEM: ATOMS id type xs ys zs
1 1 0.00806452 0.0357143 0.5
3 1 0.0403226 0.0357143 0.5
5 1 0.0725806 0.0357143 0.5
7 1 0.104839 0.0357143 0.5
9 1 0.137097 0.0357143 0.5
11 1 0.169355 0.0357143 0.5
13 1 0.201613 0.0357143 0.5
15 1 0.233871 0.0357143 0.5
17 1 0.266129 0.0357143 0.5
19 1 0.298387 0.0357143 0.5
21 1 0.330645 0.0357143 0.5
23 1 0.362903 0.0357143 0.5
25 1 0.395161 0.0357143 0.5
27 1 0.427419 0.0357143 0.5
29 1 0.459677 0.0357143 0.5
31 1 0.491935 0.0357143 0.5
33 1 0.524194 0.0357143 0.5
35 1 0.556452 0.0357143 0.5
37 1 0.58871 0.0357143 0.5
39 1 0.620968 0.0357143 0.5
41 1 0.653226 0.0357143 0.5
43 1 0.685484 0.0357143 0.5
45 1 0.717742 0.0357143 0.5
47 1 0.75 0.0357143 0.5
49 1 0.782258 0.0357143 0.5
51 1 0.814516 0.0357143 0.5
53 1 0.846774 0.0357143 0.5
55 1 0.879032 0.0357143 0.5
57 1 0.91129 0.0357143 0.5
59 1 0.943548 0.0357143 0.5
61 1 0.975806 0.0357143 0.5
63 1 0.00806452 0.178571 0.5
2 1 0.0241935 0.107143 0.5
65 1 0.0403226 0.178571 0.5
4 1 0.0564516 0.107143 0.5
6 1 0.0887097 0.107143 0.5
67 2 0.0725806 0.178571 0.5
69 2 0.104839 0.178571 0.5
8 1 0.120968 0.107143 0.5
10 1 0.153226 0.107143 0.5
71 2 0.137097 0.178571 0.5
73 1 0.169355 0.178571 0.5
12 1 0.185484 0.107143 0.5
75 2 0.201613 0.178571 0.5
14 1 0.217742 0.107143 0.5
77 1 0.233871 0.178571 0.5
16 1 0.25 0.107143 0.5
79 2 0.266129 0.178571 0.5
18 1 0.282258 0.107143 0.5
20 1 0.314516 0.107143 0.5
81 1 0.298387 0.178571 0.5
83 2 0.330645 0.178571 0.5
22 1 0.346774 0.107143 0.5
85 1 0.362903 0.178571 0.5
24 1 0.379032 0.107143 0.5
87 1 0.395161 0.178571 0.5
26 1 0.41129 0.107143 0.5
89 1 0.427419 0.178571 0.5
28 1 0.443548 0.107143 0.5
30 1 0.475806 0.107143 0.5
91 2 0.459677 0.178571 0.5
93 1 0.491935 0.178571 0.5
32 1 0.508065 0.107143 0.5
34 1 0.540323 0.107143 0.5
95 2 0.524194 0.178571 0.5
97 1 0.556452 0.178571 0.5
36 1 0.572581 0.107143 0.5
99 1 0.58871 0.178571 0.5
38 1 0.604839 0.107143 0.5
101 1 0.620968 0.178571 0.5
40 1 0.637097 0.107143 0.5
103 2 0.653226 0.178571 0.5
42 1 0.669355 0.107143 0.5
44 1 0.701613 0.107143 0.5
105 1 0.685484 0.178571 0.5
107 2 0.717742 0.178571 0.5
46 1 0.733871 0.107143 0.5
48 1 0.766129 0.107143 0.5
109 1 0.75 0.178571 0.5
111 1 0.782258 0.178571 0.5
50 1 0.798387 0.107143 0.5
113 1 0.814516 0.178571 0.5
52 1 0.830645 0.107143 0.5
54 1 0.862903 0.107143 0.5
115 2 0.846774 0.178571 0.5
117 2 0.879032 0.178571 0.5
56 1 0.895161 0.107143 0.5
58 1 0.927419 0.107143 0.5
119 2 0.91129 0.178571 0.5
121 1 0.943548 0.178571 0.5
60 1 0.959677 0.107143 0.5
123 1 0.975806 0.178571 0.5
62 1 0.991935 0.107143 0.5
64 1 0.0241935 0.25 0.5
66 1 0.0564516 0.25 0.5
68 2 0.0887097 0.25 0.5
70 2 0.120968 0.25 0.5
72 2 0.153226 0.25 0.5
74 1 0.185484 0.25 0.5
76 2 0.217742 0.25 0.5
78 1 0.25 0.25 0.5
80 2 0.282258 0.25 0.5
82 1 0.314516 0.25 0.5
84 2 0.346774 0.25 0.5
86 1 0.379032 0.25 0.5
88 1 0.41129 0.25 0.5
90 1 0.443548 0.25 0.5
92 2 0.475806 0.25 0.5
94 1 0.508065 0.25 0.5
96 2 0.540323 0.25 0.5
98 1 0.572581 0.25 0.5
100 1 0.604839 0.25 0.5
102 1 0.637097 0.25 0.5
104 2 0.669355 0.25 0.5
106 1 0.701613 0.25 0.5
108 2 0.733871 0.25 0.5
110 1 0.766129 0.25 0.5
112 1 0.798387 0.25 0.5
114 1 0.830645 0.25 0.5
116 2 0.862903 0.25 0.5
118 2 0.895161 0.25 0.5
120 2 0.927419 0.25 0.5
122 1 0.959677 0.25 0.5
124 1 0.991935 0.25 0.5
125 1 0.00806452 0.321429 0.5
126 1 0.0241935 0.392857 0.5
127 1 0.0403226 0.321429 0.5
128 1 0.0564516 0.392857 0.5
129 2 0.0725806 0.321429 0.5
130 2 0.0887097 0.392857 0.5
131 1 0.104839 0.321429 0.5
132 1 0.120968 0.392857 0.5
133 1 0.137097 0.321429 0.5
134 1 0.153226 0.392857 0.5
135 1 0.169355 0.321429 0.5
136 1 0.185484 0.392857 0.5
137 2 0.201613 0.321429 0.5
138 2 0.217742 0.392857 0.5
139 1 0.233871 0.321429 0.5
140 1 0.25 0.392857 0.5
141 2 0.266129 0.321429 0.5
142 2 0.282258 0.392857 0.5
143 1 0.298387 0.321429 0.5
144 1 0.314516 0.392857 0.5
145 2 0.330645 0.321429 0.5
146 2 0.346774 0.392857 0.5
147 1 0.362903 0.321429 0.5
148 1 0.379032 0.392857 0.5
149 1 0.395161 0.321429 0.5
150 1 0.41129 0.392857 0.5
151 1 0.427419 0.321429 0.5
152 1 0.443548 0.392857 0.5
153 2 0.459677 0.321429 0.5
154 2 0.475806 0.392857 0.5
155 1 0.491935 0.321429 0.5
156 1 0.508065 0.392857 0.5
157 2 0.524194 0.321429 0.5
158 2 0.540323 0.392857 0.5
159 1 0.556452 0.321429 0.5
160 1 0.572581 0.392857 0.5
161 1 0.58871 0.321429 0.5
162 1 0.604839 0.392857 0.5
163 1 0.620968 0.321429 0.5
164 1 0.637097 0.392857 0.5
165 2 0.653226 0.321429 0.5
166 2 0.669355 0.392857 0.5
167 1 0.685484 0.321429 0.5
168 1 0.701613 0.392857 0.5
169 2 0.717742 0.321429 0.5
170 2 0.733871 0.392857 0.5
171 1 0.75 0.321429 0.5
172 1 0.766129 0.392857 0.5
173 1 0.782258 0.321429 0.5
174 1 0.798387 0.392857 0.5
175 1 0.814516 0.321429 0.5
176 1 0.830645 0.392857 0.5
177 1 0.846774 0.321429 0.5
178 1 0.862903 0.392857 0.5
179 1 0.879032 0.321429 0.5
180 1 0.895161 0.392857 0.5
181 2 0.91129 0.321429 0.5
182 2 0.927419 0.392857 0.5
183 1 0.943548 0.321429 0.5
184 1 0.959677 0.392857 0.5
185 1 0.975806 0.321429 0.5
186 1 0.991935 0.392857 0.5
187 1 0.00806452 0.464286 0.5
189 1 0.0403226 0.464286 0.5
191 2 0.0725806 0.464286 0.5
193 1 0.104839 0.464286 0.5
195 1 0.137097 0.464286 0.5
197 1 0.169355 0.464286 0.5
199 2 0.201613 0.464286 0.5
201 2 0.233871 0.464286 0.5
203 2 0.266129 0.464286 0.5
205 1 0.298387 0.464286 0.5
207 2 0.330645 0.464286 0.5
209 1 0.362903 0.464286 0.5
211 2 0.395161 0.464286 0.5
213 1 0.427419 0.464286 0.5
215 2 0.459677 0.464286 0.5
217 1 0.491935 0.464286 0.5
219 2 0.524194 0.464286 0.5
221 1 0.556452 0.464286 0.5
223 2 0.58871 0.464286 0.5
225 1 0.620968 0.464286 0.5
227 2 0.653226 0.464286 0.5
229 1 0.685484 0.464286 0.5
231 2 0.717742 0.464286 0.5
233 2 0.75 0.464286 0.5
235 2 0.782258 0.464286 0.5
237 1 0.814516 0.464286 0.5
239 2 0.846774 0.464286 0.5
241 2 0.879032 0.464286 0.5
243 2 0.91129 0.464286 0.5
245 1 0.943548 0.464286 0.5
247 1 0.975806 0.464286 0.5
188 1 0.0241935 0.535714 0.5
190 1 0.0564516 0.535714 0.5
192 2 0.0887097 0.535714 0.5
194 1 0.120968 0.535714 0.5
196 1 0.153226 0.535714 0.5
198 1 0.185484 0.535714 0.5
200 2 0.217742 0.535714 0.5
202 2 0.25 0.535714 0.5
204 2 0.282258 0.535714 0.5
206 1 0.314516 0.535714 0.5
208 2 0.346774 0.535714 0.5
210 1 0.379032 0.535714 0.5
212 2 0.41129 0.535714 0.5
214 1 0.443548 0.535714 0.5
216 2 0.475806 0.535714 0.5
218 1 0.508065 0.535714 0.5
220 2 0.540323 0.535714 0.5
222 1 0.572581 0.535714 0.5
224 2 0.604839 0.535714 0.5
226 1 0.637097 0.535714 0.5
228 2 0.669355 0.535714 0.5
230 1 0.701613 0.535714 0.5
232 2 0.733871 0.535714 0.5
234 2 0.766129 0.535714 0.5
236 2 0.798387 0.535714 0.5
238 1 0.830645 0.535714 0.5
240 2 0.862903 0.535714 0.5
242 2 0.895161 0.535714 0.5
244 2 0.927419 0.535714 0.5
246 1 0.959677 0.535714 0.5
248 1 0.991935 0.535714 0.5
249 1 0.00806452 0.607143 0.5
250 1 0.0241935 0.678571 0.5
251 1 0.0403226 0.607143 0.5
252 1 0.0564516 0.678571 0.5
253 2 0.0725806 0.607143 0.5
254 2 0.0887097 0.678571 0.5
255 1 0.104839 0.607143 0.5
256 1 0.120968 0.678571 0.5
257 1 0.137097 0.607143 0.5
258 1 0.153226 0.678571 0.5
259 1 0.169355 0.607143 0.5
260 1 0.185484 0.678571 0.5
261 2 0.201613 0.607143 0.5
262 2 0.217742 0.678571 0.5
263 1 0.233871 0.607143 0.5
264 1 0.25 0.678571 0.5
265 2 0.266129 0.607143 0.5
266 2 0.282258 0.678571 0.5
267 1 0.298387 0.607143 0.5
268 1 0.314516 0.678571 0.5
269 2 0.330645 0.607143 0.5
270 2 0.346774 0.678571 0.5
271 1 0.362903 0.607143 0.5
272 1 0.379032 0.678571 0.5
273 2 0.395161 0.607143 0.5
274 2 0.41129 0.678571 0.5
275 1 0.427419 0.607143 0.5
276 1 0.443548 0.678571 0.5
277 2 0.459677 0.607143 0.5
278 2 0.475806 0.678571 0.5
279 1 0.491935 0.607143 0.5
280 1 0.508065 0.678571 0.5
281 2 0.524194 0.607143 0.5
282 2 0.540323 0.678571 0.5
283 1 0.556452 0.607143 0.5
284 1 0.572581 0.678571 0.5
285 2 0.58871 0.607143 0.5
286 2 0.604839 0.678571 0.5
287 1 0.620968 0.607143 0.5
288 1 0.637097 0.678571 0.5
289 2 0.653226 0.607143 0.5
290 2 0.669355 0.678571 0.5
291 1 0.685484 0.607143 0.5
292 1 0.701613 0.678571 0.5
293 2 0.717742 0.607143 0.5
294 2 0.733871 0.678571 0.5
295 1 0.75 0.607143 0.5
296 1 0.766129 0.678571 0.5
297 2 0.782258 0.607143 0.5
298 2 0.798387 0.678571 0.5
299 1 0.814516 0.607143 0.5
300 1 0.830645 0.678571 0.5
301 2 0.846774 0.607143 0.5
302 2 0.862903 0.678571 0.5
303 1 0.879032 0.607143 0.5
304 1 0.895161 0.678571 0.5
305 1 0.91129 0.607143 0.5
306 1 0.927419 0.678571 0.5
307 1 0.943548 0.607143 0.5
308 1 0.959677 0.678571 0.5
309 1 0.975806 0.607143 0.5
310 1 0.991935 0.678571 0.5
311 1 0.00806452 0.75 0.5
313 1 0.0403226 0.75 0.5
315 2 0.0725806 0.75 0.5
317 1 0.104839 0.75 0.5
319 1 0.137097 0.75 0.5
321 1 0.169355 0.75 0.5
323 2 0.201613 0.75 0.5
325 2 0.233871 0.75 0.5
327 2 0.266129 0.75 0.5
329 1 0.298387 0.75 0.5
331 2 0.330645 0.75 0.5
333 2 0.362903 0.75 0.5
335 2 0.395161 0.75 0.5
337 2 0.427419 0.75 0.5
339 2 0.459677 0.75 0.5
341 1 0.491935 0.75 0.5
343 2 0.524194 0.75 0.5
345 2 0.556452 0.75 0.5
347 2 0.58871 0.75 0.5
349 2 0.620968 0.75 0.5
351 2 0.653226 0.75 0.5
353 1 0.685484 0.75 0.5
355 2 0.717742 0.75 0.5
357 2 0.75 0.75 0.5
359 2 0.782258 0.75 0.5
361 1 0.814516 0.75 0.5
363 2 0.846774 0.75 0.5
365 2 0.879032 0.75 0.5
367 2 0.91129 0.75 0.5
369 1 0.943548 0.75 0.5
371 1 0.975806 0.75 0.5
373 1 0.00806452 0.892857 0.5
312 1 0.0241935 0.821429 0.5
375 1 0.0403226 0.892857 0.5
314 1 0.0564516 0.821429 0.5
316 2 0.0887097 0.821429 0.5
377 1 0.0725806 0.892857 0.5
379 1 0.104839 0.892857 0.5
318 1 0.120968 0.821429 0.5
320 1 0.153226 0.821429 0.5
381 1 0.137097 0.892857 0.5
383 1 0.169355 0.892857 0.5
322 1 0.185484 0.821429 0.5
385 1 0.201613 0.892857 0.5
324 2 0.217742 0.821429 0.5
387 1 0.233871 0.892857 0.5
326 2 0.25 0.821429 0.5
389 1 0.266129 0.892857 0.5
328 2 0.282258 0.821429 0.5
330 1 0.314516 0.821429 0.5
391 1 0.298387 0.892857 0.5
393 1 0.330645 0.892857 0.5
332 2 0.346774 0.821429 0.5
395 1 0.362903 0.892857 0.5
334 2 0.379032 0.821429 0.5
397 1 0.395161 0.892857 0.5
336 2 0.41129 0.821429 0.5
399 1 0.427419 0.892857 0.5
338 2 0.443548 0.821429 0.5
340 2 0.475806 0.821429 0.5
401 1 0.459677 0.892857 0.5
403 1 0.491935 0.892857 0.5
342 1 0.508065 0.821429 0.5
344 2 0.540323 0.821429 0.5
405 1 0.524194 0.892857 0.5
407 1 0.556452 0.892857 0.5
346 2 0.572581 0.821429 0.5
409 1 0.58871 0.892857 0.5
348 2 0.604839 0.821429 0.5
411 1 0.620968 0.892857 0.5
350 2 0.637097 0.821429 0.5
413 1 0.653226 0.892857 0.5
352 2 0.669355 0.821429 0.5
354 1 0.701613 0.821429 0.5
415 1 0.685484 0.892857 0.5
417 1 0.717742 0.892857 0.5
356 2 0.733871 0.821429 0.5
358 2 0.766129 0.821429 0.5
419 1 0.75 0.892857 0.5
421 1 0.782258 0.892857 0.5
360 2 0.798387 0.821429 0.5
423 1 0.814516 0.892857 0.5
362 1 0.830645 0.821429 0.5
364 2 0.862903 0.821429 0.5
425 1 0.846774 0.892857 0.5
427 1 0.879032 0.892857 0.5
366 2 0.895161 0.821429 0.5
368 2 0.927419 0.821429 0.5
429 1 0.91129 0.892857 0.5
431 1 0.943548 0.892857 0.5
370 1 0.959677 0.821429 0.5
433 1 0.975806 0.892857 0.5
372 1 0.991935 0.821429 0.5
374 1 0.0241935 0.964286 0.5
376 1 0.0564516 0.964286 0.5
378 1 0.0887097 0.964286 0.5
380 1 0.120968 0.964286 0.5
382 1 0.153226 0.964286 0.5
384 1 0.185484 0.964286 0.5
386 1 0.217742 0.964286 0.5
388 1 0.25 0.964286 0.5
390 1 0.282258 0.964286 0.5
392 1 0.314516 0.964286 0.5
394 1 0.346774 0.964286 0.5
396 1 0.379032 0.964286 0.5
398 1 0.41129 0.964286 0.5
400 1 0.443548 0.964286 0.5
402 1 0.475806 0.964286 0.5
404 1 0.508065 0.964286 0.5
406 1 0.540323 0.964286 0.5
408 1 0.572581 0.964286 0.5
410 1 0.604839 0.964286 0.5
412 1 0.637097 0.964286 0.5
414 1 0.669355 0.964286 0.5
416 1 0.701613 0.964286 0.5
418 1 0.733871 0.964286 0.5
420 1 0.766129 0.964286 0.5
422 1 0.798387 0.964286 0.5
424 1 0.830645 0.964286 0.5
426 1 0.862903 0.964286 0.5
428 1 0.895161 0.964286 0.5
430 1 0.927419 0.964286 0.5
432 1 0.959677 0.964286 0.5
434 1 0.991935 0.964286 0.5
ITEM: TIMESTEP
40
ITEM: NUMBER OF ATOMS
434
ITEM: BOX BOUNDS pp pp pp
0 62
0 14
-1 1
ITEM: ATOMS id type xs ys zs
1 1 0.00806452 0.0357143 0.5
3 1 0.0403226 0.0357143 0.5
5 1 0.0725806 0.0357143 0.5
7 1 0.104839 0.0357143 0.5
9 1 0.137097 0.0357143 0.5
11 1 0.169355 0.0357143 0.5
13 1 0.201613 0.0357143 0.5
15 1 0.233871 0.0357143 0.5
17 1 0.266129 0.0357143 0.5
19 1 0.298387 0.0357143 0.5
21 1 0.330645 0.0357143 0.5
23 1 0.362903 0.0357143 0.5
25 1 0.395161 0.0357143 0.5
27 1 0.427419 0.0357143 0.5
29 1 0.459677 0.0357143 0.5
31 1 0.491935 0.0357143 0.5
33 1 0.524194 0.0357143 0.5
35 1 0.556452 0.0357143 0.5
37 1 0.58871 0.0357143 0.5
39 1 0.620968 0.0357143 0.5
41 1 0.653226 0.0357143 0.5
43 1 0.685484 0.0357143 0.5
45 1 0.717742 0.0357143 0.5
47 1 0.75 0.0357143 0.5
49 1 0.782258 0.0357143 0.5
51 1 0.814516 0.0357143 0.5
53 1 0.846774 0.0357143 0.5
55 1 0.879032 0.0357143 0.5
57 1 0.91129 0.0357143 0.5
59 1 0.943548 0.0357143 0.5
61 1 0.975806 0.0357143 0.5
63 1 0.00806452 0.178571 0.5
2 1 0.0241935 0.107143 0.5
65 1 0.0403226 0.178571 0.5
4 1 0.0564516 0.107143 0.5
6 1 0.0887097 0.107143 0.5
67 2 0.0725806 0.178571 0.5
69 2 0.104839 0.178571 0.5
8 1 0.120968 0.107143 0.5
10 1 0.153226 0.107143 0.5
71 2 0.137097 0.178571 0.5
73 1 0.169355 0.178571 0.5
12 1 0.185484 0.107143 0.5
75 2 0.201613 0.178571 0.5
14 1 0.217742 0.107143 0.5
77 1 0.233871 0.178571 0.5
16 1 0.25 0.107143 0.5
79 2 0.266129 0.178571 0.5
18 1 0.282258 0.107143 0.5
20 1 0.314516 0.107143 0.5
81 1 0.298387 0.178571 0.5
83 2 0.330645 0.178571 0.5
22 1 0.346774 0.107143 0.5
85 1 0.362903 0.178571 0.5
24 1 0.379032 0.107143 0.5
87 1 0.395161 0.178571 0.5
26 1 0.41129 0.107143 0.5
89 1 0.427419 0.178571 0.5
28 1 0.443548 0.107143 0.5
30 1 0.475806 0.107143 0.5
91 2 0.459677 0.178571 0.5
93 1 0.491935 0.178571 0.5
32 1 0.508065 0.107143 0.5
34 1 0.540323 0.107143 0.5
95 2 0.524194 0.178571 0.5
97 1 0.556452 0.178571 0.5
36 1 0.572581 0.107143 0.5
99 1 0.58871 0.178571 0.5
38 1 0.604839 0.107143 0.5
101 1 0.620968 0.178571 0.5
40 1 0.637097 0.107143 0.5
103 2 0.653226 0.178571 0.5
42 1 0.669355 0.107143 0.5
44 1 0.701613 0.107143 0.5
105 1 0.685484 0.178571 0.5
107 2 0.717742 0.178571 0.5
46 1 0.733871 0.107143 0.5
48 1 0.766129 0.107143 0.5
109 1 0.75 0.178571 0.5
111 1 0.782258 0.178571 0.5
50 1 0.798387 0.107143 0.5
113 1 0.814516 0.178571 0.5
52 1 0.830645 0.107143 0.5
54 1 0.862903 0.107143 0.5
115 2 0.846774 0.178571 0.5
117 2 0.879032 0.178571 0.5
56 1 0.895161 0.107143 0.5
58 1 0.927419 0.107143 0.5
119 2 0.91129 0.178571 0.5
121 1 0.943548 0.178571 0.5
60 1 0.959677 0.107143 0.5
123 1 0.975806 0.178571 0.5
62 1 0.991935 0.107143 0.5
64 1 0.0241935 0.25 0.5
66 1 0.0564516 0.25 0.5
68 2 0.0887097 0.25 0.5
70 2 0.120968 0.25 0.5
72 2 0.153226 0.25 0.5
74 1 0.185484 0.25 0.5
76 2 0.217742 0.25 0.5
78 1 0.25 0.25 0.5
80 2 0.282258 0.25 0.5
82 1 0.314516 0.25 0.5
84 2 0.346774 0.25 0.5
86 1 0.379032 0.25 0.5
88 1 0.41129 0.25 0.5
90 1 0.443548 0.25 0.5
92 2 0.475806 0.25 0.5
94 1 0.508065 0.25 0.5
96 2 0.540323 0.25 0.5
98 1 0.572581 0.25 0.5
100 1 0.604839 0.25 0.5
102 1 0.637097 0.25 0.5
104 2 0.669355 0.25 0.5
106 1 0.701613 0.25 0.5
108 2 0.733871 0.25 0.5
110 1 0.766129 0.25 0.5
112 1 0.798387 0.25 0.5
114 1 0.830645 0.25 0.5
116 2 0.862903 0.25 0.5
118 2 0.895161 0.25 0.5
120 2 0.927419 0.25 0.5
122 1 0.959677 0.25 0.5
124 1 0.991935 0.25 0.5
125 1 0.00806452 0.321429 0.5
126 1 0.0241935 0.392857 0.5
127 1 0.0403226 0.321429 0.5
128 1 0.0564516 0.392857 0.5
129 2 0.0725806 0.321429 0.5
130 2 0.0887097 0.392857 0.5
131 1 0.104839 0.321429 0.5
132 1 0.120968 0.392857 0.5
133 1 0.137097 0.321429 0.5
134 1 0.153226 0.392857 0.5
135 1 0.169355 0.321429 0.5
136 1 0.185484 0.392857 0.5
137 2 0.201613 0.321429 0.5
138 2 0.217742 0.392857 0.5
139 1 0.233871 0.321429 0.5
140 1 0.25 0.392857 0.5
141 2 0.266129 0.321429 0.5
142 2 0.282258 0.392857 0.5
143 1 0.298387 0.321429 0.5
144 1 0.314516 0.392857 0.5
145 2 0.330645 0.321429 0.5
146 2 0.346774 0.392857 0.5
147 1 0.362903 0.321429 0.5
148 1 0.379032 0.392857 0.5
149 1 0.395161 0.321429 0.5
150 1 0.41129 0.392857 0.5
151 1 0.427419 0.321429 0.5
152 1 0.443548 0.392857 0.5
153 2 0.459677 0.321429 0.5
154 2 0.475806 0.392857 0.5
155 1 0.491935 0.321429 0.5
156 1 0.508065 0.392857 0.5
157 2 0.524194 0.321429 0.5
158 2 0.540323 0.392857 0.5
159 1 0.556452 0.321429 0.5
160 1 0.572581 0.392857 0.5
161 1 0.58871 0.321429 0.5
162 1 0.604839 0.392857 0.5
163 1 0.620968 0.321429 0.5
164 1 0.637097 0.392857 0.5
165 2 0.653226 0.321429 0.5
166 2 0.669355 0.392857 0.5
167 1 0.685484 0.321429 0.5
168 1 0.701613 0.392857 0.5
169 2 0.717742 0.321429 0.5
170 2 0.733871 0.392857 0.5
171 1 0.75 0.321429 0.5
172 1 0.766129 0.392857 0.5
173 1 0.782258 0.321429 0.5
174 1 0.798387 0.392857 0.5
175 1 0.814516 0.321429 0.5
176 1 0.830645 0.392857 0.5
177 1 0.846774 0.321429 0.5
178 1 0.862903 0.392857 0.5
179 1 0.879032 0.321429 0.5
180 1 0.895161 0.392857 0.5
181 2 0.91129 0.321429 0.5
182 2 0.927419 0.392857 0.5
183 1 0.943548 0.321429 0.5
184 1 0.959677 0.392857 0.5
185 1 0.975806 0.321429 0.5
186 1 0.991935 0.392857 0.5
187 1 0.00806452 0.464286 0.5
189 1 0.0403226 0.464286 0.5
191 2 0.0725806 0.464286 0.5
193 1 0.104839 0.464286 0.5
195 1 0.137097 0.464286 0.5
197 1 0.169355 0.464286 0.5
199 2 0.201613 0.464286 0.5
201 2 0.233871 0.464286 0.5
203 2 0.266129 0.464286 0.5
205 1 0.298387 0.464286 0.5
207 2 0.330645 0.464286 0.5
209 1 0.362903 0.464286 0.5
211 2 0.395161 0.464286 0.5
213 1 0.427419 0.464286 0.5
215 2 0.459677 0.464286 0.5
217 1 0.491935 0.464286 0.5
219 2 0.524194 0.464286 0.5
221 1 0.556452 0.464286 0.5
223 2 0.58871 0.464286 0.5
225 1 0.620968 0.464286 0.5
227 2 0.653226 0.464286 0.5
229 1 0.685484 0.464286 0.5
231 2 0.717742 0.464286 0.5
233 2 0.75 0.464286 0.5
235 2 0.782258 0.464286 0.5
237 1 0.814516 0.464286 0.5
239 2 0.846774 0.464286 0.5
241 2 0.879032 0.464286 0.5
243 2 0.91129 0.464286 0.5
245 1 0.943548 0.464286 0.5
247 1 0.975806 0.464286 0.5
188 1 0.0241935 0.535714 0.5
190 1 0.0564516 0.535714 0.5
192 2 0.0887097 0.535714 0.5
194 1 0.120968 0.535714 0.5
196 1 0.153226 0.535714 0.5
198 1 0.185484 0.535714 0.5
200 2 0.217742 0.535714 0.5