
0 atoms
1 atom types

-100 100 xlo xhi
-100 100 ylo yhi
-100 100.0000 zlo zhi

Masses

1 196.9665


