LAMMPS (29 Jul 2013)
Processor partition = 1
Reading data file ...
  orthogonal box = (-100 -100 -100) to (100 100 100)
  1 by 1 by 1 MPI processor grid
Lattice spacing in x,y,z = 4.0788 4.0788 4.0788
Created 2880 atoms
Created 1 atoms
2880 atoms in group mobile
1 atoms in group single
576 atoms in group bottom
Setting up run ...
Memory usage per processor = 2.39464 Mbytes
Step Temp KinEng PotEng 
       0            0            0   -10759.138 
     100    75.469304    28.094899       -10787 
Loop time of 0.50982 on 1 procs for 100 steps with 2881 atoms

Pair  time (%) = 0.495814 (97.2528)
Neigh time (%) = 0 (0)
Comm  time (%) = 3.29018e-05 (0.0064536)
Outpt time (%) = 1.50204e-05 (0.00294621)
Other time (%) = 0.013958 (2.73782)

Nlocal:    2881 ave 2881 max 2881 min
Histogram: 1 0 0 0 0 0 0 0 0 0
Nghost:    0 ave 0 max 0 min
Histogram: 1 0 0 0 0 0 0 0 0 0
Neighs:    89267 ave 89267 max 89267 min
Histogram: 1 0 0 0 0 0 0 0 0 0

Total # of neighbors = 89267
Ave neighs/atom = 30.9847
Neighbor list builds = 0
Dangerous builds = 0
WARNING: Resetting reneighboring criteria during PRD (../prd.cpp:201)
Setting up minimization ...
Memory usage per processor = 3.57731 Mbytes
Step Temp KinEng PotEng 
     100    75.469304    28.094899       -10787 
     118    75.469304    28.094899   -10807.989 
Loop time of 0.229761 on 1 procs for 18 steps with 2881 atoms
Setting up run ...
Memory usage per processor = 2.8906 Mbytes
Step Temp KinEng PotEng 
     100    75.469304    28.094899       -10787 
     200    158.71265    59.083833   -10662.436 
     400    360.37308     134.1558   -10513.795 
     600    370.59953     137.9628   -10179.467 
     800    358.95218    133.62685   -9701.0738 
    1000    368.11267    137.03702   -9228.2492 
    1200    362.89352    135.09409   -8718.4025 
    1400    367.92172    136.96593   -8203.5796 
    1600    363.40514    135.28455   -7085.4157 
    1800    371.04394    138.12824   -5593.4642 
    2000     370.6587    137.98483   -5115.7897 
    2200    363.82952    135.44253   -4852.6455 
    2400    368.74076    137.27083   -4188.0651 
    2600    365.49151    136.06124   -2786.2107 
    2800     368.6768    137.24702   -1273.4619 
    3000    373.61907    139.08688     176.8648 
    3200    363.07614    135.16207    2220.7896 
    3400    372.41106    138.63717    736.88951 
    3600    369.94303     137.7184    4772.6061 
    3800    374.42133    139.38554     8159.987 
    4000    369.06034     137.3898    9131.1641 
    4200    373.04081    138.87161    8755.9801 
    4400    369.93927      137.717    9220.3163 
    4600     358.9658    133.63192    6922.8287 
    4800    366.12917    136.29862    8476.9588 
    5000    365.66474    136.12573    9654.8459 
    5200    366.09557    136.28611     9002.342 
    5400     374.6392    139.46664    12297.882 
    5600    365.56869    136.08997    10608.085 
    5800    368.70079    137.25595    10474.394 
    6000    359.29526    133.75457    11287.441 
    6200    355.31401    132.27247    10538.129 
    6400    367.65616    136.86707    8410.1994 
    6600     362.0464    134.77873    8590.8197 
    6800     364.7085    135.76975    8400.1107 
    7000    362.75484    135.04246    9884.7853 
    7200    360.74778     134.2953    8805.0826 
    7300    371.87945    138.43927      8438.91 
Loop time of 38.3548 on 1 procs for 10000 steps with 2881 atoms
Setting up run ...
Memory usage per processor = 2.89416 Mbytes
Step Temp KinEng PotEng 
     100    367.69622    136.88198    20467.575 
     200    393.00124    146.30226    18603.311 
     400    439.66218     163.6727    15921.202 
     600    477.41668    177.72753    14260.534 
     800    496.33617    184.77068    13280.303 
    1000    529.17834    196.99681    13465.396 
    1200    536.06488    199.56045    13607.381 
    1400    550.61384    204.97658     13303.02 
    1600    574.88322    214.01133    11563.784 
    1800    581.44847    216.45537    8805.3603 
Loop time of 6.69656 on 1 procs for 1800 steps with 2881 atoms
Setting up minimization ...
Memory usage per processor = 3.58927 Mbytes
Step Temp KinEng PotEng 
    1900    599.45339    223.15805    7316.8531 
    1996    599.45339    223.15805     7071.102 
Loop time of 0.43984 on 1 procs for 96 steps with 2881 atoms
Setting up run ...
Memory usage per processor = 2.90256 Mbytes
Step Temp KinEng PotEng 
    1900    599.45339    223.15805    7316.8531 
    2000    599.42771    223.14849    6400.9521 
    2200    610.35542    227.21653    5999.7458 
    2400    612.53565    228.02817    5889.0813 
    2600    638.01949    237.51502    6250.7435 
    2800    645.61932     240.3442    5854.5201 
    3000    648.68126    241.48406    4818.9364 
    3200    661.60161    246.29392    4416.7687 
    3400    669.70444    249.31035     4598.293 
    3600    680.07262     253.1701    4298.3971 
Loop time of 6.42445 on 1 procs for 1800 steps with 2881 atoms
Setting up minimization ...
Memory usage per processor = 3.60115 Mbytes
Step Temp KinEng PotEng 
    3700    667.55862    248.51153    4049.6248 
    3794    667.55862    248.51153    3736.6301 
Loop time of 0.427283 on 1 procs for 94 steps with 2881 atoms
Setting up run ...
Memory usage per processor = 2.91444 Mbytes
Step Temp KinEng PotEng 
    3700    667.55862    248.51153    1809.6689 
    3800    637.97051    237.49678    2386.5872 
    4000    641.60177    238.84859    2745.3265 
    4200    644.99394    240.11139    2308.3329 
    4400     651.7707    242.63417    2246.9155 
    4600    661.64331    246.30944    2107.8864 
    4800     647.5777    241.07324    1717.4209 
    5000    660.78154    245.98863    1398.2172 
    5200    645.55141    240.31892    958.41175 
    5400    661.31719    246.18803    336.89406 
Loop time of 6.34158 on 1 procs for 1800 steps with 2881 atoms
Setting up minimization ...
Memory usage per processor = 3.60115 Mbytes
Step Temp KinEng PotEng 
    5500    659.10685    245.36519    137.65474 
    5595    659.10685    245.36519   -162.38261 
Loop time of 0.444255 on 1 procs for 95 steps with 2881 atoms
Setting up run ...
Memory usage per processor = 2.91444 Mbytes
Step Temp KinEng PotEng 
    5500    659.10685    245.36519    137.65474 
    5600    489.40277    182.18959   -1418.8655 
    5800    398.17011    148.22648   -1337.0988 
    6000    393.83431    146.61239   -1236.5671 
    6200    386.29933    143.80735   -1504.0707 
    6400    391.89191     145.8893   -1620.6566 
    6600    396.78199    147.70972   -1468.9584 
    6800    393.41426    146.45602    185.29239 
    7000     393.8617    146.62259     393.1324 
    7200    392.91765    146.27114     450.0837 
    7300    399.61484     148.7643    895.78432 
Loop time of 34.8319 on 1 procs for 10000 steps with 2881 atoms
Setting up run ...
Memory usage per processor = 2.92234 Mbytes
Step Temp KinEng PotEng 
    5500    396.55435    147.62498   -718.72572 
    5600    452.59889    168.48864   -422.73594 
    5800    509.71123     189.7498    583.62986 
    6000    574.94685    214.03501    1315.6443 
    6200    614.55201     228.7788    1044.2666 
    6400    661.01235    246.07455    -422.7895 
    6600    688.08036    256.15114   -1741.1033 
    6800    695.12098    258.77215   -2596.4412 
    7000     724.7985    269.82017   -2831.1878 
    7200    731.76701    272.41433   -2803.0692 
    7300    743.64278    276.83531   -2722.8226 
Loop time of 6.39311 on 1 procs for 1800 steps with 2881 atoms
Setting up minimization ...
Memory usage per processor = 3.60906 Mbytes
Step Temp KinEng PotEng 
    7300    743.64278    276.83531   -2722.8226 
    7399    743.64278    276.83531   -3057.6357 
Loop time of 0.437517 on 1 procs for 99 steps with 2881 atoms
Setting up run ...
Memory usage per processor = 2.92997 Mbytes
Step Temp KinEng PotEng 
    7300    743.64278    276.83531   -221.04909 
Loop time of 101.483 on 1 procs for 99 steps with 2881 atoms

PRD stats:
  Dephase  time (%) = 73.1867 (72.117)
  Dynamics time (%) = 25.8557 (25.4778)
  Quench   time (%) = 1.7489 (1.72334)
  Other    time (%) = -1.03818 (-1.02301)

Nlocal:    2881 ave 2881 max 2881 min
Histogram: 1 0 0 0 0 0 0 0 0 0
Nghost:    0 ave 0 max 0 min
Histogram: 1 0 0 0 0 0 0 0 0 0
Neighs:    66268 ave 66268 max 66268 min
Histogram: 1 0 0 0 0 0 0 0 0 0

Total # of neighbors = 66268
Ave neighs/atom = 23.0017
Neighbor list builds = 166
Dangerous builds = 0
