ITEM: TIMESTEP
0
ITEM: NUMBER OF ATOMS
1
ITEM: BOX BOUNDS ss ss ss
26.5002 73.4304
26.5002 73.4304
-0.004 20.398
ITEM: ATOMS id xs ys zs c_msd_abov[4] 
2881 0.521728 0.521728 0.999804 0 
ITEM: TIMESTEP
80
ITEM: NUMBER OF ATOMS
1
ITEM: BOX BOUNDS ss ss ss
26.5002 73.4304
26.5002 73.4304
-0.004 20.398
ITEM: ATOMS id xs ys zs c_msd_abov[4] 
2881 0.521728 0.521728 0.986852 0.264245 
ITEM: TIMESTEP
160
ITEM: NUMBER OF ATOMS
1
ITEM: BOX BOUNDS ss ss ss
26.5002 73.4304
26.5002 73.4304
-0.004 20.398
ITEM: ATOMS id xs ys zs c_msd_abov[4] 
2881 0.521728 0.521728 0.970198 0.604025 
ITEM: TIMESTEP
240
ITEM: NUMBER OF ATOMS
1
ITEM: BOX BOUNDS ss ss ss
26.5002 73.4304
26.5002 73.4304
-0.004 20.398
ITEM: ATOMS id xs ys zs c_msd_abov[4] 
2881 0.521728 0.521728 0.96949 0.618462 
ITEM: TIMESTEP
320
ITEM: NUMBER OF ATOMS
1
ITEM: BOX BOUNDS ss ss ss
26.479 73.4516
26.479 73.4516
-0.004 19.5843
ITEM: ATOMS id xs ys zs c_msd_abov[4] 
2881 0.521709 0.521709 0.998586 0.837377 
ITEM: TIMESTEP
400
ITEM: NUMBER OF ATOMS
1
ITEM: BOX BOUNDS ss ss ss
26.479 73.4516
26.479 73.4516
-0.004 19.5843
ITEM: ATOMS id xs ys zs c_msd_abov[4] 
2881 0.521709 0.521709 0.987296 1.05853 
ITEM: TIMESTEP
480
ITEM: NUMBER OF ATOMS
1
ITEM: BOX BOUNDS ss ss ss
26.479 73.4516
26.479 73.4516
-0.004 19.5843
ITEM: ATOMS id xs ys zs c_msd_abov[4] 
2881 0.521713 0.521713 0.992688 0.952897 
ITEM: TIMESTEP
560
ITEM: NUMBER OF ATOMS
1
ITEM: BOX BOUNDS ss ss ss
26.479 73.4516
26.479 73.4516
-0.004 19.5843
ITEM: ATOMS id xs ys zs c_msd_abov[4] 
2881 0.521722 0.521722 0.993267 0.94157 
ITEM: TIMESTEP
640
ITEM: NUMBER OF ATOMS
1
ITEM: BOX BOUNDS ss ss ss
26.479 73.4516
26.479 73.4516
-0.004 19.5843
ITEM: ATOMS id xs ys zs c_msd_abov[4] 
2881 0.521741 0.521741 0.993481 0.937379 
ITEM: TIMESTEP
720
ITEM: NUMBER OF ATOMS
1
ITEM: BOX BOUNDS ss ss ss
26.479 73.4516
26.479 73.4516
-0.004 19.5843
ITEM: ATOMS id xs ys zs c_msd_abov[4] 
2881 0.521746 0.521746 1.0015 0.7802 
ITEM: TIMESTEP
800
ITEM: NUMBER OF ATOMS
1
ITEM: BOX BOUNDS ss ss ss
26.479 73.4516
26.479 73.4516
-0.004 19.5843
ITEM: ATOMS id xs ys zs c_msd_abov[4] 
2881 0.521714 0.521714 1.00362 0.738813 
ITEM: TIMESTEP
880
ITEM: NUMBER OF ATOMS
1
ITEM: BOX BOUNDS ss ss ss
26.479 73.4516
26.479 73.4516
-0.004 19.5843
ITEM: ATOMS id xs ys zs c_msd_abov[4] 
2881 0.521587 0.521587 1.0068 0.676436 
ITEM: TIMESTEP
960
ITEM: NUMBER OF ATOMS
1
ITEM: BOX BOUNDS ss ss ss
26.479 73.4516
26.479 73.4516
-0.004 19.5843
ITEM: ATOMS id xs ys zs c_msd_abov[4] 
2881 0.521427 0.521427 1.01268 0.561561 
ITEM: TIMESTEP
1040
ITEM: NUMBER OF ATOMS
1
ITEM: BOX BOUNDS ss ss ss
26.479 73.4516
26.479 73.4516
-0.004 19.5843
ITEM: ATOMS id xs ys zs c_msd_abov[4] 
2881 0.521315 0.521315 1.01376 0.540743 
ITEM: TIMESTEP
1120
ITEM: NUMBER OF ATOMS
1
ITEM: BOX BOUNDS ss ss ss
26.479 73.4516
26.479 73.4516
-0.004 19.5843
ITEM: ATOMS id xs ys zs c_msd_abov[4] 
2881 0.521296 0.521296 1.02468 0.327471 
ITEM: TIMESTEP
1200
ITEM: NUMBER OF ATOMS
1
ITEM: BOX BOUNDS ss ss ss
26.479 73.4516
26.479 73.4516
-0.004 19.5843
ITEM: ATOMS id xs ys zs c_msd_abov[4] 
2881 0.521314 0.521314 1.03505 0.125775 
ITEM: TIMESTEP
1280
ITEM: NUMBER OF ATOMS
1
ITEM: BOX BOUNDS ss ss ss
26.4325 73.4996
26.4325 73.4996
-0.004 20.233
ITEM: ATOMS id xs ys zs c_msd_abov[4] 
2881 0.521268 0.521268 0.998692 0.189157 
ITEM: TIMESTEP
1360
ITEM: NUMBER OF ATOMS
1
ITEM: BOX BOUNDS ss ss ss
26.4325 73.4996
26.4325 73.4996
-0.004 20.233
ITEM: ATOMS id xs ys zs c_msd_abov[4] 
2881 0.521337 0.521337 1.00585 0.0473309 
ITEM: TIMESTEP
1440
ITEM: NUMBER OF ATOMS
1
ITEM: BOX BOUNDS ss ss ss
26.4325 73.4996
26.4325 73.4996
-0.004 20.233
ITEM: ATOMS id xs ys zs c_msd_abov[4] 
2881 0.521344 0.521344 1.01776 0.199467 
ITEM: TIMESTEP
1520
ITEM: NUMBER OF ATOMS
1
ITEM: BOX BOUNDS ss ss ss
26.4325 73.4996
26.4325 73.4996
-0.004 20.233
ITEM: ATOMS id xs ys zs c_msd_abov[4] 
2881 0.521293 0.521293 1.01538 0.152088 
ITEM: TIMESTEP
1600
ITEM: NUMBER OF ATOMS
1
ITEM: BOX BOUNDS ss ss ss
26.4325 73.4996
26.4325 73.4996
-0.004 20.233
ITEM: ATOMS id xs ys zs c_msd_abov[4] 
2881 0.52138 0.52138 1.01643 0.172514 
ITEM: TIMESTEP
1680
ITEM: NUMBER OF ATOMS
1
ITEM: BOX BOUNDS ss ss ss
26.4325 73.4996
26.4325 73.4996
-0.004 20.233
ITEM: ATOMS id xs ys zs c_msd_abov[4] 
2881 0.521598 0.521598 1.01933 0.230204 
ITEM: TIMESTEP
1760
ITEM: NUMBER OF ATOMS
1
ITEM: BOX BOUNDS ss ss ss
26.4325 73.4996
26.4325 73.4996
-0.004 20.233
ITEM: ATOMS id xs ys zs c_msd_abov[4] 
2881 0.521858 0.521858 1.0075 0.0166348 
ITEM: TIMESTEP
1840
ITEM: NUMBER OF ATOMS
1
ITEM: BOX BOUNDS ss ss ss
26.4325 73.4996
26.4325 73.4996
-0.004 20.233
ITEM: ATOMS id xs ys zs c_msd_abov[4] 
2881 0.522284 0.522284 0.998897 0.188117 
ITEM: TIMESTEP
1920
ITEM: NUMBER OF ATOMS
1
ITEM: BOX BOUNDS ss ss ss
26.4325 73.4996
26.4325 73.4996
-0.004 20.233
ITEM: ATOMS id xs ys zs c_msd_abov[4] 
2881 0.522477 0.522477 0.999421 0.181299 
ITEM: TIMESTEP
2000
ITEM: NUMBER OF ATOMS
1
ITEM: BOX BOUNDS ss ss ss
26.4297 73.4951
26.4297 73.4951
-0.004 20.1364
ITEM: ATOMS id xs ys zs c_msd_abov[4] 
2881 0.522452 0.522452 0.994204 0.377397 
ITEM: TIMESTEP
2080
ITEM: NUMBER OF ATOMS
1
ITEM: BOX BOUNDS ss ss ss
26.4297 73.4951
26.4297 73.4951
-0.004 20.1364
ITEM: ATOMS id xs ys zs c_msd_abov[4] 
2881 0.522219 0.522219 0.983413 0.592529 
ITEM: TIMESTEP
2160
ITEM: NUMBER OF ATOMS
1
ITEM: BOX BOUNDS ss ss ss
26.4297 73.4951
26.4297 73.4951
-0.004 20.1364
ITEM: ATOMS id xs ys zs c_msd_abov[4] 
2881 0.521955 0.521955 0.979195 0.67675 
ITEM: TIMESTEP
2240
ITEM: NUMBER OF ATOMS
1
ITEM: BOX BOUNDS ss ss ss
26.4297 73.4951
26.4297 73.4951
-0.004 20.1364
ITEM: ATOMS id xs ys zs c_msd_abov[4] 
2881 0.521471 0.521471 0.969747 0.867028 
ITEM: TIMESTEP
2320
ITEM: NUMBER OF ATOMS
1
ITEM: BOX BOUNDS ss ss ss
26.4297 73.4951
26.4297 73.4951
-0.004 20.1364
ITEM: ATOMS id xs ys zs c_msd_abov[4] 
2881 0.521087 0.521087 0.968072 0.901614 
ITEM: TIMESTEP
2400
ITEM: NUMBER OF ATOMS
1
ITEM: BOX BOUNDS ss ss ss
26.4297 73.4951
26.4297 73.4951
-0.004 20.1364
ITEM: ATOMS id xs ys zs c_msd_abov[4] 
2881 0.521556 0.521556 0.97262 0.809084 
ITEM: TIMESTEP
2480
ITEM: NUMBER OF ATOMS
1
ITEM: BOX BOUNDS ss ss ss
26.4297 73.4951
26.4297 73.4951
-0.004 20.1364
ITEM: ATOMS id xs ys zs c_msd_abov[4] 
2881 0.522046 0.522046 0.964489 0.972999 
ITEM: TIMESTEP
2560
ITEM: NUMBER OF ATOMS
1
ITEM: BOX BOUNDS ss ss ss
26.4297 73.4951
26.4297 73.4951
-0.004 20.1364
ITEM: ATOMS id xs ys zs c_msd_abov[4] 
2881 0.522469 0.522469 0.957787 1.10886 
ITEM: TIMESTEP
2640
ITEM: NUMBER OF ATOMS
1
ITEM: BOX BOUNDS ss ss ss
26.4297 73.4951
26.4297 73.4951
-0.004 20.1364
ITEM: ATOMS id xs ys zs c_msd_abov[4] 
2881 0.523048 0.523048 0.963756 0.99144 
ITEM: TIMESTEP
2720
ITEM: NUMBER OF ATOMS
1
ITEM: BOX BOUNDS ss ss ss
26.4297 73.4951
26.4297 73.4951
-0.004 20.1364
ITEM: ATOMS id xs ys zs c_msd_abov[4] 
2881 0.522998 0.522998 0.965528 0.955597 
ITEM: TIMESTEP
2800
ITEM: NUMBER OF ATOMS
1
ITEM: BOX BOUNDS ss ss ss
26.4297 73.4951
26.4297 73.4951
-0.004 20.1364
ITEM: ATOMS id xs ys zs c_msd_abov[4] 
2881 0.522103 0.522103 0.96787 0.905025 
ITEM: TIMESTEP
2880
ITEM: NUMBER OF ATOMS
1
ITEM: BOX BOUNDS ss ss ss
26.4297 73.4951
26.4297 73.4951
-0.004 20.1364
ITEM: ATOMS id xs ys zs c_msd_abov[4] 
2881 0.521303 0.521303 0.971583 0.830376 
ITEM: TIMESTEP
2960
ITEM: NUMBER OF ATOMS
1
ITEM: BOX BOUNDS ss ss ss
26.4297 73.4951
26.4297 73.4951
-0.004 20.1364
ITEM: ATOMS id xs ys zs c_msd_abov[4] 
2881 0.520698 0.520698 0.96911 0.882362 
ITEM: TIMESTEP
3040
ITEM: NUMBER OF ATOMS
1
ITEM: BOX BOUNDS ss ss ss
26.4297 73.4951
26.4297 73.4951
-0.004 20.1364
ITEM: ATOMS id xs ys zs c_msd_abov[4] 
2881 0.520707 0.520707 0.974358 0.776978 
ITEM: TIMESTEP
3120
ITEM: NUMBER OF ATOMS
1
ITEM: BOX BOUNDS ss ss ss
26.4297 73.4951
26.4297 73.4951
-0.004 20.1364
ITEM: ATOMS id xs ys zs c_msd_abov[4] 
2881 0.520995 0.520995 0.983258 0.596741 
ITEM: TIMESTEP
3200
ITEM: NUMBER OF ATOMS
1
ITEM: BOX BOUNDS ss ss ss
26.4297 73.4951
26.4297 73.4951
-0.004 20.1364
ITEM: ATOMS id xs ys zs c_msd_abov[4] 
2881 0.520594 0.520594 0.981386 0.636937 
ITEM: TIMESTEP
3280
ITEM: NUMBER OF ATOMS
1
ITEM: BOX BOUNDS ss ss ss
26.4084 73.5425
26.4084 73.5425
-0.004 19.7927
ITEM: ATOMS id xs ys zs c_msd_abov[4] 
2881 0.519398 0.519398 1.00164 0.584485 
ITEM: TIMESTEP
3360
ITEM: NUMBER OF ATOMS
1
ITEM: BOX BOUNDS ss ss ss
26.4084 73.5425
26.4084 73.5425
-0.004 19.7927
ITEM: ATOMS id xs ys zs c_msd_abov[4] 
2881 0.519685 0.519685 1.01501 0.325433 
ITEM: TIMESTEP
3440
ITEM: NUMBER OF ATOMS
1
ITEM: BOX BOUNDS ss ss ss
26.4084 73.5425
26.4084 73.5425
-0.004 19.7927
ITEM: ATOMS id xs ys zs c_msd_abov[4] 
2881 0.520503 0.520503 1.01927 0.228148 
ITEM: TIMESTEP
3520
ITEM: NUMBER OF ATOMS
1
ITEM: BOX BOUNDS ss ss ss
26.4084 73.5425
26.4084 73.5425
-0.004 19.7927
ITEM: ATOMS id xs ys zs c_msd_abov[4] 
2881 0.521175 0.521175 1.02298 0.147317 
ITEM: TIMESTEP
3600
ITEM: NUMBER OF ATOMS
1
ITEM: BOX BOUNDS ss ss ss
26.4084 73.5425
26.4084 73.5425
-0.004 19.7927
ITEM: ATOMS id xs ys zs c_msd_abov[4] 
2881 0.52142 0.52142 1.02249 0.15601 
ITEM: TIMESTEP
3680
ITEM: NUMBER OF ATOMS
1
ITEM: BOX BOUNDS ss ss ss
26.4084 73.5425
26.4084 73.5425
-0.004 19.7927
ITEM: ATOMS id xs ys zs c_msd_abov[4] 
2881 0.521209 0.521209 1.01119 0.379962 
ITEM: TIMESTEP
3760
ITEM: NUMBER OF ATOMS
1
ITEM: BOX BOUNDS ss ss ss
26.4084 73.5425
26.4084 73.5425
-0.004 19.7927
ITEM: ATOMS id xs ys zs c_msd_abov[4] 
2881 0.520478 0.520478 1.00929 0.422092 
ITEM: TIMESTEP
3840
ITEM: NUMBER OF ATOMS
1
ITEM: BOX BOUNDS ss ss ss
26.2549 73.6637
26.2549 73.6637
-0.004 20.071
ITEM: ATOMS id xs ys zs c_msd_abov[4] 
2881 0.520833 0.520833 1.00046 0.31828 
ITEM: TIMESTEP
3920
ITEM: NUMBER OF ATOMS
1
ITEM: BOX BOUNDS ss ss ss
26.2549 73.6637
26.2549 73.6637
-0.004 20.071
ITEM: ATOMS id xs ys zs c_msd_abov[4] 
2881 0.521665 0.521665 0.997788 0.367442 
ITEM: TIMESTEP
4000
ITEM: NUMBER OF ATOMS
1
ITEM: BOX BOUNDS ss ss ss
26.2549 73.6637
26.2549 73.6637
-0.004 20.071
ITEM: ATOMS id xs ys zs c_msd_abov[4] 
2881 0.522628 0.522628 0.994103 0.446398 
ITEM: TIMESTEP
4080
ITEM: NUMBER OF ATOMS
1
ITEM: BOX BOUNDS ss ss ss
26.2549 73.6637
26.2549 73.6637
-0.004 20.071
ITEM: ATOMS id xs ys zs c_msd_abov[4] 
2881 0.523327 0.523327 0.98953 0.545153 
ITEM: TIMESTEP
4160
ITEM: NUMBER OF ATOMS
1
ITEM: BOX BOUNDS ss ss ss
26.2549 73.6637
26.2549 73.6637
-0.004 20.071
ITEM: ATOMS id xs ys zs c_msd_abov[4] 
2881 0.523579 0.523579 0.984709 0.643339 
ITEM: TIMESTEP
4240
ITEM: NUMBER OF ATOMS
1
ITEM: BOX BOUNDS ss ss ss
26.2549 73.6637
26.2549 73.6637
-0.004 20.071
ITEM: ATOMS id xs ys zs c_msd_abov[4] 
2881 0.523674 0.523674 0.986623 0.607158 
ITEM: TIMESTEP
4320
ITEM: NUMBER OF ATOMS
1
ITEM: BOX BOUNDS ss ss ss
26.2549 73.6637
26.2549 73.6637
-0.004 20.071
ITEM: ATOMS id xs ys zs c_msd_abov[4] 
2881 0.523901 0.523901 0.99011 0.543233 
ITEM: TIMESTEP
4400
ITEM: NUMBER OF ATOMS
1
ITEM: BOX BOUNDS ss ss ss
26.2549 73.6637
26.2549 73.6637
-0.004 20.071
ITEM: ATOMS id xs ys zs c_msd_abov[4] 
2881 0.523983 0.523983 0.992142 0.505892 
ITEM: TIMESTEP
4480
ITEM: NUMBER OF ATOMS
1
ITEM: BOX BOUNDS ss ss ss
26.2549 73.6637
26.2549 73.6637
-0.004 20.071
ITEM: ATOMS id xs ys zs c_msd_abov[4] 
2881 0.523518 0.523518 0.996255 0.417744 
ITEM: TIMESTEP
4560
ITEM: NUMBER OF ATOMS
1
ITEM: BOX BOUNDS ss ss ss
26.2549 73.6637
26.2549 73.6637
-0.004 20.071
ITEM: ATOMS id xs ys zs c_msd_abov[4] 
2881 0.522664 0.522664 1.00181 0.294864 
ITEM: TIMESTEP
4640
ITEM: NUMBER OF ATOMS
1
ITEM: BOX BOUNDS ss ss ss
26.2549 73.6637
26.2549 73.6637
-0.004 20.071
ITEM: ATOMS id xs ys zs c_msd_abov[4] 
2881 0.521794 0.521794 1.00772 0.168372 
ITEM: TIMESTEP
4720
ITEM: NUMBER OF ATOMS
1
ITEM: BOX BOUNDS ss ss ss
26.2549 73.6637
26.2549 73.6637
-0.004 20.071
ITEM: ATOMS id xs ys zs c_msd_abov[4] 
2881 0.521308 0.521308 1.01166 0.0916515 
ITEM: TIMESTEP
4800
ITEM: NUMBER OF ATOMS
1
ITEM: BOX BOUNDS ss ss ss
26.2549 73.6637
26.2549 73.6637
-0.004 20.071
ITEM: ATOMS id xs ys zs c_msd_abov[4] 
2881 0.52132 0.52132 1.00864 0.151124 
ITEM: TIMESTEP
4880
ITEM: NUMBER OF ATOMS
1
ITEM: BOX BOUNDS ss ss ss
26.2549 73.6637
26.2549 73.6637
-0.004 20.071
ITEM: ATOMS id xs ys zs c_msd_abov[4] 
2881 0.521122 0.521122 1.00491 0.226995 
ITEM: TIMESTEP
4960
ITEM: NUMBER OF ATOMS
1
ITEM: BOX BOUNDS ss ss ss
26.2549 73.6637
26.2549 73.6637
-0.004 20.071
ITEM: ATOMS id xs ys zs c_msd_abov[4] 
2881 0.520002 0.520002 1.00602 0.229828 
ITEM: TIMESTEP
5040
ITEM: NUMBER OF ATOMS
1
ITEM: BOX BOUNDS ss ss ss
26.2549 73.6637
26.2549 73.6637
-0.004 20.071
ITEM: ATOMS id xs ys zs c_msd_abov[4] 
2881 0.519093 0.519093 1.00215 0.32769 
ITEM: TIMESTEP
5120
ITEM: NUMBER OF ATOMS
1
ITEM: BOX BOUNDS ss ss ss
26.2549 73.6637
26.2549 73.6637
-0.004 20.071
ITEM: ATOMS id xs ys zs c_msd_abov[4] 
2881 0.519236 0.519236 0.99446 0.46306 
ITEM: TIMESTEP
5200
ITEM: NUMBER OF ATOMS
1
ITEM: BOX BOUNDS ss ss ss
26.2549 73.6637
26.2549 73.6637
-0.004 20.071
ITEM: ATOMS id xs ys zs c_msd_abov[4] 
2881 0.520067 0.520067 0.990174 0.530795 
ITEM: TIMESTEP
5280
ITEM: NUMBER OF ATOMS
1
ITEM: BOX BOUNDS ss ss ss
26.2549 73.6637
26.2549 73.6637
-0.004 20.071
ITEM: ATOMS id xs ys zs c_msd_abov[4] 
2881 0.520895 0.520895 0.986958 0.58694 
ITEM: TIMESTEP
5360
ITEM: NUMBER OF ATOMS
1
ITEM: BOX BOUNDS ss ss ss
26.2549 73.6637
26.2549 73.6637
-0.004 20.071
ITEM: ATOMS id xs ys zs c_msd_abov[4] 
2881 0.521773 0.521773 0.986152 0.601086 
ITEM: TIMESTEP
5440
ITEM: NUMBER OF ATOMS
1
ITEM: BOX BOUNDS ss ss ss
26.2549 73.6637
26.2549 73.6637
-0.004 20.071
ITEM: ATOMS id xs ys zs c_msd_abov[4] 
2881 0.522605 0.522605 0.984595 0.63562 
ITEM: TIMESTEP
5520
ITEM: NUMBER OF ATOMS
1
ITEM: BOX BOUNDS ss ss ss
26.2549 73.6637
26.2549 73.6637
-0.004 20.071
ITEM: ATOMS id xs ys zs c_msd_abov[4] 
2881 0.523317 0.523317 0.977001 0.7928 
ITEM: TIMESTEP
5600
ITEM: NUMBER OF ATOMS
1
ITEM: BOX BOUNDS ss ss ss
26.3329 73.591
26.3329 73.591
-0.004 19.5856
ITEM: ATOMS id xs ys zs c_msd_abov[4] 
2881 0.523111 0.523111 0.997706 0.858944 
ITEM: TIMESTEP
5680
ITEM: NUMBER OF ATOMS
1
ITEM: BOX BOUNDS ss ss ss
26.3329 73.591
26.3329 73.591
-0.004 19.5856
ITEM: ATOMS id xs ys zs c_msd_abov[4] 
2881 0.521727 0.521727 1.00286 0.752472 
ITEM: TIMESTEP
5760
ITEM: NUMBER OF ATOMS
1
ITEM: BOX BOUNDS ss ss ss
26.3329 73.591
26.3329 73.591
-0.004 19.5856
ITEM: ATOMS id xs ys zs c_msd_abov[4] 
2881 0.521308 0.521308 1.00072 0.794692 
ITEM: TIMESTEP
5840
ITEM: NUMBER OF ATOMS
1
ITEM: BOX BOUNDS ss ss ss
26.3329 73.591
26.3329 73.591
-0.004 19.5856
ITEM: ATOMS id xs ys zs c_msd_abov[4] 
2881 0.521867 0.521867 0.988736 1.02918 
ITEM: TIMESTEP
5920
ITEM: NUMBER OF ATOMS
1
ITEM: BOX BOUNDS ss ss ss
26.3329 73.591
26.3329 73.591
-0.004 19.5856
ITEM: ATOMS id xs ys zs c_msd_abov[4] 
2881 0.521621 0.521621 0.980918 1.18223 
ITEM: TIMESTEP
6000
ITEM: NUMBER OF ATOMS
1
ITEM: BOX BOUNDS ss ss ss
26.3329 73.591
26.3329 73.591
-0.004 19.5856
ITEM: ATOMS id xs ys zs c_msd_abov[4] 
2881 0.521305 0.521305 0.978262 1.23446 
ITEM: TIMESTEP
6080
ITEM: NUMBER OF ATOMS
1
ITEM: BOX BOUNDS ss ss ss
26.3329 73.591
26.3329 73.591
-0.004 19.5856
ITEM: ATOMS id xs ys zs c_msd_abov[4] 
2881 0.521945 0.521945 0.981184 1.17719 
ITEM: TIMESTEP
6160
ITEM: NUMBER OF ATOMS
1
ITEM: BOX BOUNDS ss ss ss
26.3329 73.591
26.3329 73.591
-0.004 19.5856
ITEM: ATOMS id xs ys zs c_msd_abov[4] 
2881 0.521963 0.521963 0.986454 1.07399 
ITEM: TIMESTEP
6240
ITEM: NUMBER OF ATOMS
1
ITEM: BOX BOUNDS ss ss ss
26.3329 73.591
26.3329 73.591
-0.004 19.5856
ITEM: ATOMS id xs ys zs c_msd_abov[4] 
2881 0.521844 0.521844 0.995589 0.89493 
ITEM: TIMESTEP
6320
ITEM: NUMBER OF ATOMS
1
ITEM: BOX BOUNDS ss ss ss
26.3329 73.591
26.3329 73.591
-0.004 19.5856
ITEM: ATOMS id xs ys zs c_msd_abov[4] 
2881 0.522372 0.522372 1.01108 0.593352 
ITEM: TIMESTEP
6400
ITEM: NUMBER OF ATOMS
1
ITEM: BOX BOUNDS ss ss ss
26.3329 73.591
26.3329 73.591
-0.004 19.5856
ITEM: ATOMS id xs ys zs c_msd_abov[4] 
2881 0.523058 0.523058 1.02196 0.389853 
ITEM: TIMESTEP
6480
ITEM: NUMBER OF ATOMS
1
ITEM: BOX BOUNDS ss ss ss
26.3329 73.591
26.3329 73.591
-0.004 19.5856
ITEM: ATOMS id xs ys zs c_msd_abov[4] 
2881 0.523591 0.523591 1.02727 0.303446 
ITEM: TIMESTEP
6560
ITEM: NUMBER OF ATOMS
1
ITEM: BOX BOUNDS ss ss ss
26.3329 73.591
26.3329 73.591
-0.004 19.5856
ITEM: ATOMS id xs ys zs c_msd_abov[4] 
2881 0.523321 0.523321 1.03825 0.126491 
ITEM: TIMESTEP
6640
ITEM: NUMBER OF ATOMS
1
ITEM: BOX BOUNDS ss ss ss
26.3329 73.591
26.3329 73.591
-0.004 19.5856
ITEM: ATOMS id xs ys zs c_msd_abov[4] 
2881 0.522004 0.522004 1.04591 0.0939612 
ITEM: TIMESTEP
6720
ITEM: NUMBER OF ATOMS
1
ITEM: BOX BOUNDS ss ss ss
26.3329 73.591
26.3329 73.591
-0.004 19.5856
ITEM: ATOMS id xs ys zs c_msd_abov[4] 
2881 0.520703 0.520703 1.04052 0.0648575 
ITEM: TIMESTEP
6800
ITEM: NUMBER OF ATOMS
1
ITEM: BOX BOUNDS ss ss ss
26.3329 73.591
26.3329 73.591
-0.004 19.5856
ITEM: ATOMS id xs ys zs c_msd_abov[4] 
2881 0.520904 0.520904 1.0384 0.075062 
ITEM: TIMESTEP
6880
ITEM: NUMBER OF ATOMS
1
ITEM: BOX BOUNDS ss ss ss
26.3329 73.591
26.3329 73.591
-0.004 19.5856
ITEM: ATOMS id xs ys zs c_msd_abov[4] 
2881 0.521729 0.521729 1.04366 0.0471073 
ITEM: TIMESTEP
6960
ITEM: NUMBER OF ATOMS
1
ITEM: BOX BOUNDS ss ss ss
26.3329 73.591
26.3329 73.591
-0.004 19.5856
ITEM: ATOMS id xs ys zs c_msd_abov[4] 
2881 0.521415 0.521415 1.03999 0.0294077 
ITEM: TIMESTEP
7040
ITEM: NUMBER OF ATOMS
1
ITEM: BOX BOUNDS ss ss ss
26.3329 73.591
26.3329 73.591
-0.004 19.5856
ITEM: ATOMS id xs ys zs c_msd_abov[4] 
2881 0.520971 0.520971 1.03082 0.209539 
ITEM: TIMESTEP
7120
ITEM: NUMBER OF ATOMS
1
ITEM: BOX BOUNDS ss ss ss
26.3329 73.591
26.3329 73.591
-0.004 19.5856
ITEM: ATOMS id xs ys zs c_msd_abov[4] 
2881 0.522483 0.522483 1.02733 0.278735 
ITEM: TIMESTEP
7200
ITEM: NUMBER OF ATOMS
1
ITEM: BOX BOUNDS ss ss ss
26.3329 73.591
26.3329 73.591
-0.004 19.5856
ITEM: ATOMS id xs ys zs c_msd_abov[4] 
2881 0.523388 0.523388 1.02273 0.381371 
ITEM: TIMESTEP
7280
ITEM: NUMBER OF ATOMS
1
ITEM: BOX BOUNDS ss ss ss
26.3329 73.591
26.3329 73.591
-0.004 19.5856
ITEM: ATOMS id xs ys zs c_msd_abov[4] 
2881 0.522795 0.522795 1.01535 0.51354 
ITEM: TIMESTEP
7360
ITEM: NUMBER OF ATOMS
1
ITEM: BOX BOUNDS ss ss ss
26.3329 73.591
26.3329 73.591
-0.004 19.5856
ITEM: ATOMS id xs ys zs c_msd_abov[4] 
2881 0.523347 0.523347 1.00836 0.654654 
ITEM: TIMESTEP
7440
ITEM: NUMBER OF ATOMS
1
ITEM: BOX BOUNDS ss ss ss
26.3329 73.591
26.3329 73.591
-0.004 19.5856
ITEM: ATOMS id xs ys zs c_msd_abov[4] 
2881 0.523964 0.523964 1.00647 0.699059 
ITEM: TIMESTEP
7520
ITEM: NUMBER OF ATOMS
1
ITEM: BOX BOUNDS ss ss ss
26.3329 73.591
26.3329 73.591
-0.004 19.5856
ITEM: ATOMS id xs ys zs c_msd_abov[4] 
2881 0.523001 0.523001 1.01084 0.602927 
ITEM: TIMESTEP
7600
ITEM: NUMBER OF ATOMS
1
ITEM: BOX BOUNDS ss ss ss
26.3329 73.591
26.3329 73.591
-0.004 19.5856
ITEM: ATOMS id xs ys zs c_msd_abov[4] 
2881 0.522694 0.522694 1.01695 0.481416 
ITEM: TIMESTEP
7680
ITEM: NUMBER OF ATOMS
1
ITEM: BOX BOUNDS ss ss ss
26.3329 73.591
26.3329 73.591
-0.004 19.5856
ITEM: ATOMS id xs ys zs c_msd_abov[4] 
2881 0.522238 0.522238 1.02137 0.391781 
ITEM: TIMESTEP
7760
ITEM: NUMBER OF ATOMS
1
ITEM: BOX BOUNDS ss ss ss
26.3329 73.591
26.3329 73.591
-0.004 19.5856
ITEM: ATOMS id xs ys zs c_msd_abov[4] 
2881 0.520709 0.520709 1.02481 0.328462 
ITEM: TIMESTEP
7840
ITEM: NUMBER OF ATOMS
1
ITEM: BOX BOUNDS ss ss ss
26.3329 73.591
26.3329 73.591
-0.004 19.5856
ITEM: ATOMS id xs ys zs c_msd_abov[4] 
2881 0.520681 0.520681 1.02612 0.303731 
ITEM: TIMESTEP
7920
ITEM: NUMBER OF ATOMS
1
ITEM: BOX BOUNDS ss ss ss
26.3329 73.591
26.3329 73.591
-0.004 19.5856
ITEM: ATOMS id xs ys zs c_msd_abov[4] 
2881 0.521969 0.521969 1.01942 0.428528 
ITEM: TIMESTEP
8000
ITEM: NUMBER OF ATOMS
1
ITEM: BOX BOUNDS ss ss ss
26.3329 73.591
26.3329 73.591
-0.004 19.5856
ITEM: ATOMS id xs ys zs c_msd_abov[4] 
2881 0.52167 0.52167 1.00979 0.616671 
ITEM: TIMESTEP
8080
ITEM: NUMBER OF ATOMS
1
ITEM: BOX BOUNDS ss ss ss
26.3329 73.591
26.3329 73.591
-0.004 19.5856
ITEM: ATOMS id xs ys zs c_msd_abov[4] 
2881 0.520072 0.520072 1.00473 0.723408 
ITEM: TIMESTEP
8160
ITEM: NUMBER OF ATOMS
1
ITEM: BOX BOUNDS ss ss ss
26.3329 73.591
26.3329 73.591
-0.004 19.5856
ITEM: ATOMS id xs ys zs c_msd_abov[4] 
2881 0.519672 0.519672 0.997675 0.864128 
ITEM: TIMESTEP
8240
ITEM: NUMBER OF ATOMS
1
ITEM: BOX BOUNDS ss ss ss
26.3329 73.591
26.3329 73.591
-0.004 19.5856
ITEM: ATOMS id xs ys zs c_msd_abov[4] 
2881 0.519578 0.519578 0.992151 0.97208 
ITEM: TIMESTEP
8320
ITEM: NUMBER OF ATOMS
1
ITEM: BOX BOUNDS ss ss ss
26.3329 73.591
26.3329 73.591
-0.004 19.5856
ITEM: ATOMS id xs ys zs c_msd_abov[4] 
2881 0.519583 0.519583 0.997627 0.865981 
ITEM: TIMESTEP
8400
ITEM: NUMBER OF ATOMS
1
ITEM: BOX BOUNDS ss ss ss
26.3934 73.5755
26.3934 73.5755
-0.004 19.549
ITEM: ATOMS id xs ys zs c_msd_abov[4] 
2881 0.519906 0.519906 1.00552 0.742286 
ITEM: TIMESTEP
8480
ITEM: NUMBER OF ATOMS
1
ITEM: BOX BOUNDS ss ss ss
26.3934 73.5755
26.3934 73.5755
-0.004 19.549
ITEM: ATOMS id xs ys zs c_msd_abov[4] 
2881 0.52082 0.52082 1.01083 0.633725 
ITEM: TIMESTEP
8560
ITEM: NUMBER OF ATOMS
1
ITEM: BOX BOUNDS ss ss ss
26.3934 73.5755
26.3934 73.5755
-0.004 19.549
ITEM: ATOMS id xs ys zs c_msd_abov[4] 
2881 0.522635 0.522635 1.02312 0.404317 
ITEM: TIMESTEP
8640
ITEM: NUMBER OF ATOMS
1
ITEM: BOX BOUNDS ss ss ss
26.3934 73.5755
26.3934 73.5755
-0.004 19.549
ITEM: ATOMS id xs ys zs c_msd_abov[4] 
2881 0.524259 0.524259 1.02894 0.345507 
ITEM: TIMESTEP
8720
ITEM: NUMBER OF ATOMS
1
ITEM: BOX BOUNDS ss ss ss
26.3934 73.5755
26.3934 73.5755
-0.004 19.549
ITEM: ATOMS id xs ys zs c_msd_abov[4] 
2881 0.524237 0.524237 1.02635 0.38679 
ITEM: TIMESTEP
8800
ITEM: NUMBER OF ATOMS
1
ITEM: BOX BOUNDS ss ss ss
26.3934 73.5755
26.3934 73.5755
-0.004 19.549
ITEM: ATOMS id xs ys zs c_msd_abov[4] 
2881 0.5231 0.5231 1.02772 0.328313 
ITEM: TIMESTEP
8880
ITEM: NUMBER OF ATOMS
1
ITEM: BOX BOUNDS ss ss ss
26.3934 73.5755
26.3934 73.5755
-0.004 19.549
ITEM: ATOMS id xs ys zs c_msd_abov[4] 
2881 0.522623 0.522623 1.02535 0.361884 
ITEM: TIMESTEP
8960
ITEM: NUMBER OF ATOMS
1
ITEM: BOX BOUNDS ss ss ss
26.3934 73.5755
26.3934 73.5755
-0.004 19.549
ITEM: ATOMS id xs ys zs c_msd_abov[4] 
2881 0.521905 0.521905 1.01617 0.53087 
ITEM: TIMESTEP
9040
ITEM: NUMBER OF ATOMS
1
ITEM: BOX BOUNDS ss ss ss
26.3934 73.5755
26.3934 73.5755
-0.004 19.549
ITEM: ATOMS id xs ys zs c_msd_abov[4] 
2881 0.520553 0.520553 1.01183 0.615329 
ITEM: TIMESTEP
9120
ITEM: NUMBER OF ATOMS
1
ITEM: BOX BOUNDS ss ss ss
26.3934 73.5755
26.3934 73.5755
-0.004 19.549
ITEM: ATOMS id xs ys zs c_msd_abov[4] 
2881 0.520112 0.520112 1.00477 0.755372 
ITEM: TIMESTEP
9200
ITEM: NUMBER OF ATOMS
1
ITEM: BOX BOUNDS ss ss ss
26.3934 73.5755
26.3934 73.5755
-0.004 19.549
ITEM: ATOMS id xs ys zs c_msd_abov[4] 
2881 0.519889 0.519889 0.992964 0.986531 
ITEM: TIMESTEP
9280
ITEM: NUMBER OF ATOMS
1
ITEM: BOX BOUNDS ss ss ss
26.3934 73.5755
26.3934 73.5755
-0.004 19.549
ITEM: ATOMS id xs ys zs c_msd_abov[4] 
2881 0.519535 0.519535 0.991329 1.02068 
ITEM: TIMESTEP
9360
ITEM: NUMBER OF ATOMS
1
ITEM: BOX BOUNDS ss ss ss
26.3527 73.5598
26.3527 73.5598
-0.004 19.399
ITEM: ATOMS id xs ys zs c_msd_abov[4] 
2881 0.52091 0.52091 1.00102 0.976926 
ITEM: TIMESTEP
9440
ITEM: NUMBER OF ATOMS
1
ITEM: BOX BOUNDS ss ss ss
26.3527 73.5598
26.3527 73.5598
-0.004 19.399
ITEM: ATOMS id xs ys zs c_msd_abov[4] 
2881 0.521722 0.521722 1.0065 0.868955 
ITEM: TIMESTEP
9520
ITEM: NUMBER OF ATOMS
1
ITEM: BOX BOUNDS ss ss ss
26.3527 73.5598
26.3527 73.5598
-0.004 19.399
ITEM: ATOMS id xs ys zs c_msd_abov[4] 
2881 0.52216 0.52216 1.01916 0.623646 
ITEM: TIMESTEP
9600
ITEM: NUMBER OF ATOMS
1
ITEM: BOX BOUNDS ss ss ss
26.3527 73.5598
26.3527 73.5598
-0.004 19.399
ITEM: ATOMS id xs ys zs c_msd_abov[4] 
2881 0.522785 0.522785 1.02537 0.507095 
ITEM: TIMESTEP
9680
ITEM: NUMBER OF ATOMS
1
ITEM: BOX BOUNDS ss ss ss
26.3527 73.5598
26.3527 73.5598
-0.004 19.399
ITEM: ATOMS id xs ys zs c_msd_abov[4] 
2881 0.523342 0.523342 1.02515 0.517348 
ITEM: TIMESTEP
9760
ITEM: NUMBER OF ATOMS
1
ITEM: BOX BOUNDS ss ss ss
26.3527 73.5598
26.3527 73.5598
-0.004 19.399
ITEM: ATOMS id xs ys zs c_msd_abov[4] 
2881 0.524275 0.524275 1.03127 0.422154 
ITEM: TIMESTEP
9840
ITEM: NUMBER OF ATOMS
1
ITEM: BOX BOUNDS ss ss ss
26.3527 73.5598
26.3527 73.5598
-0.004 19.399
ITEM: ATOMS id xs ys zs c_msd_abov[4] 
2881 0.524399 0.524399 1.03672 0.331822 
ITEM: TIMESTEP
9920
ITEM: NUMBER OF ATOMS
1
ITEM: BOX BOUNDS ss ss ss
26.3527 73.5598
26.3527 73.5598
-0.004 19.399
ITEM: ATOMS id xs ys zs c_msd_abov[4] 
2881 0.522054 0.522054 1.0386 0.246626 
ITEM: TIMESTEP
10000
ITEM: NUMBER OF ATOMS
1
ITEM: BOX BOUNDS ss ss ss
26.3194 73.5512
26.3194 73.5512
-0.004 20.1985
ITEM: ATOMS id xs ys zs c_msd_abov[4] 
2881 0.520656 0.520656 0.999917 0.223307 
ITEM: TIMESTEP
10080
ITEM: NUMBER OF ATOMS
1
ITEM: BOX BOUNDS ss ss ss
26.3194 73.5512
26.3194 73.5512
-0.004 20.1985
ITEM: ATOMS id xs ys zs c_msd_abov[4] 
2881 0.521574 0.521574 1.00108 0.179023 
ITEM: TIMESTEP
10160
ITEM: NUMBER OF ATOMS
1
ITEM: BOX BOUNDS ss ss ss
26.3194 73.5512
26.3194 73.5512
-0.004 20.1985
ITEM: ATOMS id xs ys zs c_msd_abov[4] 
2881 0.522287 0.522287 0.999142 0.212898 
ITEM: TIMESTEP
10240
ITEM: NUMBER OF ATOMS
1
ITEM: BOX BOUNDS ss ss ss
26.3194 73.5512
26.3194 73.5512
-0.004 20.1985
ITEM: ATOMS id xs ys zs c_msd_abov[4] 
2881 0.521147 0.521147 0.998862 0.230039 
ITEM: TIMESTEP
10320
ITEM: NUMBER OF ATOMS
1
ITEM: BOX BOUNDS ss ss ss
26.3194 73.5512
26.3194 73.5512
-0.004 20.1985
ITEM: ATOMS id xs ys zs c_msd_abov[4] 
2881 0.520642 0.520642 0.995985 0.296135 
ITEM: TIMESTEP
10400
ITEM: NUMBER OF ATOMS
1
ITEM: BOX BOUNDS ss ss ss
26.3194 73.5512
26.3194 73.5512
-0.004 20.1985
ITEM: ATOMS id xs ys zs c_msd_abov[4] 
2881 0.521149 0.521149 0.99506 0.303915 
ITEM: TIMESTEP
10480
ITEM: NUMBER OF ATOMS
1
ITEM: BOX BOUNDS ss ss ss
26.3194 73.5512
26.3194 73.5512
-0.004 20.1985
ITEM: ATOMS id xs ys zs c_msd_abov[4] 
2881 0.520874 0.520874 0.997536 0.261346 
ITEM: TIMESTEP
10560
ITEM: NUMBER OF ATOMS
1
ITEM: BOX BOUNDS ss ss ss
26.3194 73.5512
26.3194 73.5512
-0.004 20.1985
ITEM: ATOMS id xs ys zs c_msd_abov[4] 
2881 0.520743 0.520743 0.994181 0.328337 
ITEM: TIMESTEP
10640
ITEM: NUMBER OF ATOMS
1
ITEM: BOX BOUNDS ss ss ss
26.3194 73.5512
26.3194 73.5512
-0.004 20.1985
ITEM: ATOMS id xs ys zs c_msd_abov[4] 
2881 0.521345 0.521345 0.990359 0.394689 
ITEM: TIMESTEP
10720
ITEM: NUMBER OF ATOMS
1
ITEM: BOX BOUNDS ss ss ss
26.3194 73.5512
26.3194 73.5512
-0.004 20.1985
ITEM: ATOMS id xs ys zs c_msd_abov[4] 
2881 0.521442 0.521442 0.990722 0.386498 
ITEM: TIMESTEP
10800
ITEM: NUMBER OF ATOMS
1
ITEM: BOX BOUNDS ss ss ss
26.3194 73.5512
26.3194 73.5512
-0.004 20.1985
ITEM: ATOMS id xs ys zs c_msd_abov[4] 
2881 0.521733 0.521733 0.983387 0.532155 
ITEM: TIMESTEP
10880
ITEM: NUMBER OF ATOMS
1
ITEM: BOX BOUNDS ss ss ss
26.3194 73.5512
26.3194 73.5512
-0.004 20.1985
ITEM: ATOMS id xs ys zs c_msd_abov[4] 
2881 0.52309 0.52309 0.970763 0.788298 
ITEM: TIMESTEP
10960
ITEM: NUMBER OF ATOMS
1
ITEM: BOX BOUNDS ss ss ss
26.3194 73.5512
26.3194 73.5512
-0.004 20.1985
ITEM: ATOMS id xs ys zs c_msd_abov[4] 
2881 0.524367 0.524367 0.96799 0.854272 
ITEM: TIMESTEP
11040
ITEM: NUMBER OF ATOMS
1
ITEM: BOX BOUNDS ss ss ss
26.3194 73.5512
26.3194 73.5512
-0.004 20.1985
ITEM: ATOMS id xs ys zs c_msd_abov[4] 
2881 0.524746 0.524746 0.968319 0.852368 
ITEM: TIMESTEP
11120
ITEM: NUMBER OF ATOMS
1
ITEM: BOX BOUNDS ss ss ss
26.3546 73.5581
26.3546 73.5581
-0.004 19.5047
ITEM: ATOMS id xs ys zs c_msd_abov[4] 
2881 0.523698 0.523698 0.999337 0.911188 
ITEM: TIMESTEP
11200
ITEM: NUMBER OF ATOMS
1
ITEM: BOX BOUNDS ss ss ss
26.3546 73.5581
26.3546 73.5581
-0.004 19.5047
ITEM: ATOMS id xs ys zs c_msd_abov[4] 
2881 0.522041 0.522041 0.999797 0.893454 
ITEM: TIMESTEP
11280
ITEM: NUMBER OF ATOMS
1
ITEM: BOX BOUNDS ss ss ss
26.3546 73.5581
26.3546 73.5581
-0.004 19.5047
ITEM: ATOMS id xs ys zs c_msd_abov[4] 
2881 0.521296 0.521296 1.0031 0.829543 
ITEM: TIMESTEP
11360
ITEM: NUMBER OF ATOMS
1
ITEM: BOX BOUNDS ss ss ss
26.3546 73.5581
26.3546 73.5581
-0.004 19.5047
ITEM: ATOMS id xs ys zs c_msd_abov[4] 
2881 0.522041 0.522041 1.00695 0.753842 
ITEM: TIMESTEP
11440
ITEM: NUMBER OF ATOMS
1
ITEM: BOX BOUNDS ss ss ss
26.3546 73.5581
26.3546 73.5581
-0.004 19.5047
ITEM: ATOMS id xs ys zs c_msd_abov[4] 
2881 0.522218 0.522218 1.01213 0.653392 
ITEM: TIMESTEP
11520
ITEM: NUMBER OF ATOMS
1
ITEM: BOX BOUNDS ss ss ss
26.3546 73.5581
26.3546 73.5581
-0.004 19.5047
ITEM: ATOMS id xs ys zs c_msd_abov[4] 
2881 0.521718 0.521718 1.01388 0.618562 
ITEM: TIMESTEP
11600
ITEM: NUMBER OF ATOMS
1
ITEM: BOX BOUNDS ss ss ss
26.3546 73.5581
26.3546 73.5581
-0.004 19.5047
ITEM: ATOMS id xs ys zs c_msd_abov[4] 
2881 0.52167 0.52167 1.01749 0.548219 
ITEM: TIMESTEP
11680
ITEM: NUMBER OF ATOMS
1
ITEM: BOX BOUNDS ss ss ss
26.3546 73.5581
26.3546 73.5581
-0.004 19.5047
ITEM: ATOMS id xs ys zs c_msd_abov[4] 
2881 0.521515 0.521515 1.02548 0.392775 
ITEM: TIMESTEP
11760
ITEM: NUMBER OF ATOMS
1
ITEM: BOX BOUNDS ss ss ss
26.3546 73.5581
26.3546 73.5581
-0.004 19.5047
ITEM: ATOMS id xs ys zs c_msd_abov[4] 
2881 0.521309 0.521309 1.02602 0.382988 
ITEM: TIMESTEP
11840
ITEM: NUMBER OF ATOMS
1
ITEM: BOX BOUNDS ss ss ss
26.3546 73.5581
26.3546 73.5581
-0.004 19.5047
ITEM: ATOMS id xs ys zs c_msd_abov[4] 
2881 0.521721 0.521721 1.02307 0.43932 
ITEM: TIMESTEP
11920
ITEM: NUMBER OF ATOMS
1
ITEM: BOX BOUNDS ss ss ss
26.3546 73.5581
26.3546 73.5581
-0.004 19.5047
ITEM: ATOMS id xs ys zs c_msd_abov[4] 
2881 0.522213 0.522213 1.02455 0.411343 
ITEM: TIMESTEP
12000
ITEM: NUMBER OF ATOMS
1
ITEM: BOX BOUNDS ss ss ss
26.3546 73.5581
26.3546 73.5581
-0.004 19.5047
ITEM: ATOMS id xs ys zs c_msd_abov[4] 
2881 0.522103 0.522103 1.0226 0.448994 
ITEM: TIMESTEP
12080
ITEM: NUMBER OF ATOMS
1
ITEM: BOX BOUNDS ss ss ss
26.3546 73.5581
26.3546 73.5581
-0.004 19.5047
ITEM: ATOMS id xs ys zs c_msd_abov[4] 
2881 0.521982 0.521982 1.01819 0.534559 
ITEM: TIMESTEP
12160
ITEM: NUMBER OF ATOMS
1
ITEM: BOX BOUNDS ss ss ss
26.3546 73.5581
26.3546 73.5581
-0.004 19.5047
ITEM: ATOMS id xs ys zs c_msd_abov[4] 