ITEM: TIMESTEP
0
ITEM: NUMBER OF ATOMS
1
ITEM: BOX BOUNDS ss ss ss
26.5002 73.4304
26.5002 73.4304
-0.004 20.398
ITEM: ATOMS id xs ys zs c_msd_abov[4] 
2881 0.521728 0.521728 0.999804 0 
ITEM: TIMESTEP
80
ITEM: NUMBER OF ATOMS
1
ITEM: BOX BOUNDS ss ss ss
26.5002 73.4304
26.5002 73.4304
-0.004 20.398
ITEM: ATOMS id xs ys zs c_msd_abov[4] 
2881 0.521728 0.521728 0.986851 0.264266 
ITEM: TIMESTEP
160
ITEM: NUMBER OF ATOMS
1
ITEM: BOX BOUNDS ss ss ss
26.5002 73.4304
26.5002 73.4304
-0.004 20.398
ITEM: ATOMS id xs ys zs c_msd_abov[4] 
2881 0.521728 0.521728 0.970185 0.604285 
ITEM: TIMESTEP
240
ITEM: NUMBER OF ATOMS
1
ITEM: BOX BOUNDS ss ss ss
26.5002 73.4304
26.5002 73.4304
-0.004 20.398
ITEM: ATOMS id xs ys zs c_msd_abov[4] 
2881 0.521728 0.521728 0.969469 0.61889 
ITEM: TIMESTEP
320
ITEM: NUMBER OF ATOMS
1
ITEM: BOX BOUNDS ss ss ss
26.4787 73.4519
26.4787 73.4519
-0.004 19.5834
ITEM: ATOMS id xs ys zs c_msd_abov[4] 
2881 0.521708 0.521708 0.998583 0.838331 
ITEM: TIMESTEP
400
ITEM: NUMBER OF ATOMS
1
ITEM: BOX BOUNDS ss ss ss
26.4787 73.4519
26.4787 73.4519
-0.004 19.5834
ITEM: ATOMS id xs ys zs c_msd_abov[4] 
2881 0.521709 0.521709 0.98727 1.05991 
ITEM: TIMESTEP
480
ITEM: NUMBER OF ATOMS
1
ITEM: BOX BOUNDS ss ss ss
26.4787 73.4519
26.4787 73.4519
-0.004 19.5834
ITEM: ATOMS id xs ys zs c_msd_abov[4] 
2881 0.521712 0.521712 0.992716 0.953253 
ITEM: TIMESTEP
560
ITEM: NUMBER OF ATOMS
1
ITEM: BOX BOUNDS ss ss ss
26.4787 73.4519
26.4787 73.4519
-0.004 19.5834
ITEM: ATOMS id xs ys zs c_msd_abov[4] 
2881 0.521722 0.521722 0.993302 0.941759 
ITEM: TIMESTEP
640
ITEM: NUMBER OF ATOMS
1
ITEM: BOX BOUNDS ss ss ss
26.4787 73.4519
26.4787 73.4519
-0.004 19.5834
ITEM: ATOMS id xs ys zs c_msd_abov[4] 
2881 0.521741 0.521741 0.993527 0.937359 
ITEM: TIMESTEP
720
ITEM: NUMBER OF ATOMS
1
ITEM: BOX BOUNDS ss ss ss
26.4787 73.4519
26.4787 73.4519
-0.004 19.5834
ITEM: ATOMS id xs ys zs c_msd_abov[4] 
2881 0.521746 0.521746 1.00162 0.778775 
ITEM: TIMESTEP
800
ITEM: NUMBER OF ATOMS
1
ITEM: BOX BOUNDS ss ss ss
26.4787 73.4519
26.4787 73.4519
-0.004 19.5834
ITEM: ATOMS id xs ys zs c_msd_abov[4] 
2881 0.521713 0.521713 1.00374 0.737263 
ITEM: TIMESTEP
880
ITEM: NUMBER OF ATOMS
1
ITEM: BOX BOUNDS ss ss ss
26.4787 73.4519
26.4787 73.4519
-0.004 19.5834
ITEM: ATOMS id xs ys zs c_msd_abov[4] 
2881 0.521586 0.521586 1.00692 0.675138 
ITEM: TIMESTEP
960
ITEM: NUMBER OF ATOMS
1
ITEM: BOX BOUNDS ss ss ss
26.4787 73.4519
26.4787 73.4519
-0.004 19.5834
ITEM: ATOMS id xs ys zs c_msd_abov[4] 
2881 0.521423 0.521423 1.01284 0.559394 
ITEM: TIMESTEP
1040
ITEM: NUMBER OF ATOMS
1
ITEM: BOX BOUNDS ss ss ss
26.4787 73.4519
26.4787 73.4519
-0.004 19.5834
ITEM: ATOMS id xs ys zs c_msd_abov[4] 
2881 0.521309 0.521309 1.01397 0.537624 
ITEM: TIMESTEP
1120
ITEM: NUMBER OF ATOMS
1
ITEM: BOX BOUNDS ss ss ss
26.4787 73.4519
26.4787 73.4519
-0.004 19.5834
ITEM: ATOMS id xs ys zs c_msd_abov[4] 
2881 0.52129 0.52129 1.02507 0.320647 
ITEM: TIMESTEP
1200
ITEM: NUMBER OF ATOMS
1
ITEM: BOX BOUNDS ss ss ss
26.4787 73.4519
26.4787 73.4519
-0.004 19.5834
ITEM: ATOMS id xs ys zs c_msd_abov[4] 
2881 0.521306 0.521306 1.03561 0.116221 
ITEM: TIMESTEP
1280
ITEM: NUMBER OF ATOMS
1
ITEM: BOX BOUNDS ss ss ss
26.4247 73.5074
26.4247 73.5074
-0.004 20.2536
ITEM: ATOMS id xs ys zs c_msd_abov[4] 
2881 0.521252 0.521252 0.998122 0.180311 
ITEM: TIMESTEP
1360
ITEM: NUMBER OF ATOMS
1
ITEM: BOX BOUNDS ss ss ss
26.4247 73.5074
26.4247 73.5074
-0.004 20.2536
ITEM: ATOMS id xs ys zs c_msd_abov[4] 
2881 0.521324 0.521324 1.00539 0.0376578 
ITEM: TIMESTEP
1440
ITEM: NUMBER OF ATOMS
1
ITEM: BOX BOUNDS ss ss ss
26.4247 73.5074
26.4247 73.5074
-0.004 20.2536
ITEM: ATOMS id xs ys zs c_msd_abov[4] 
2881 0.521336 0.521336 1.01749 0.214778 
ITEM: TIMESTEP
1520
ITEM: NUMBER OF ATOMS
1
ITEM: BOX BOUNDS ss ss ss
26.4247 73.5074
26.4247 73.5074
-0.004 20.2536
ITEM: ATOMS id xs ys zs c_msd_abov[4] 
2881 0.521284 0.521284 1.01508 0.166879 
ITEM: TIMESTEP
1600
ITEM: NUMBER OF ATOMS
1
ITEM: BOX BOUNDS ss ss ss
26.4247 73.5074
26.4247 73.5074
-0.004 20.2536
ITEM: ATOMS id xs ys zs c_msd_abov[4] 
2881 0.521369 0.521369 1.01616 0.187891 
ITEM: TIMESTEP
1680
ITEM: NUMBER OF ATOMS
1
ITEM: BOX BOUNDS ss ss ss
26.4247 73.5074
26.4247 73.5074
-0.004 20.2536
ITEM: ATOMS id xs ys zs c_msd_abov[4] 
2881 0.521592 0.521592 1.01918 0.248185 
ITEM: TIMESTEP
1760
ITEM: NUMBER OF ATOMS
1
ITEM: BOX BOUNDS ss ss ss
26.4247 73.5074
26.4247 73.5074
-0.004 20.2536
ITEM: ATOMS id xs ys zs c_msd_abov[4] 
2881 0.52186 0.52186 1.00722 0.0157177 
ITEM: TIMESTEP
1840
ITEM: NUMBER OF ATOMS
1
ITEM: BOX BOUNDS ss ss ss
26.4247 73.5074
26.4247 73.5074
-0.004 20.2536
ITEM: ATOMS id xs ys zs c_msd_abov[4] 
2881 0.522301 0.522301 0.998337 0.17955 
ITEM: TIMESTEP
1920
ITEM: NUMBER OF ATOMS
1
ITEM: BOX BOUNDS ss ss ss
26.4247 73.5074
26.4247 73.5074
-0.004 20.2536
ITEM: ATOMS id xs ys zs c_msd_abov[4] 
2881 0.522499 0.522499 0.998808 0.174177 
ITEM: TIMESTEP
2000
ITEM: NUMBER OF ATOMS
1
ITEM: BOX BOUNDS ss ss ss
26.4199 73.5048
26.4199 73.5048
-0.004 20.1573
ITEM: ATOMS id xs ys zs c_msd_abov[4] 
2881 0.522466 0.522466 0.993422 0.372662 
ITEM: TIMESTEP
2080
ITEM: NUMBER OF ATOMS
1
ITEM: BOX BOUNDS ss ss ss
26.4199 73.5048
26.4199 73.5048
-0.004 20.1573
ITEM: ATOMS id xs ys zs c_msd_abov[4] 
2881 0.522212 0.522212 0.982532 0.589781 
ITEM: TIMESTEP
2160
ITEM: NUMBER OF ATOMS
1
ITEM: BOX BOUNDS ss ss ss
26.4199 73.5048
26.4199 73.5048
-0.004 20.1573
ITEM: ATOMS id xs ys zs c_msd_abov[4] 
2881 0.521943 0.521943 0.978281 0.674751 
ITEM: TIMESTEP
2240
ITEM: NUMBER OF ATOMS
1
ITEM: BOX BOUNDS ss ss ss
26.4199 73.5048
26.4199 73.5048
-0.004 20.1573
ITEM: ATOMS id xs ys zs c_msd_abov[4] 
2881 0.521454 0.521454 0.968549 0.87097 
ITEM: TIMESTEP
2320
ITEM: NUMBER OF ATOMS
1
ITEM: BOX BOUNDS ss ss ss
26.4199 73.5048
26.4199 73.5048
-0.004 20.1573
ITEM: ATOMS id xs ys zs c_msd_abov[4] 
2881 0.52105 0.52105 0.966939 0.904338 
ITEM: TIMESTEP
2400
ITEM: NUMBER OF ATOMS
1
ITEM: BOX BOUNDS ss ss ss
26.4199 73.5048
26.4199 73.5048
-0.004 20.1573
ITEM: ATOMS id xs ys zs c_msd_abov[4] 
2881 0.521549 0.521549 0.971806 0.805201 
ITEM: TIMESTEP
2480
ITEM: NUMBER OF ATOMS
1
ITEM: BOX BOUNDS ss ss ss
26.4199 73.5048
26.4199 73.5048
-0.004 20.1573
ITEM: ATOMS id xs ys zs c_msd_abov[4] 
2881 0.522076 0.522076 0.963326 0.97639 
ITEM: TIMESTEP
2560
ITEM: NUMBER OF ATOMS
1
ITEM: BOX BOUNDS ss ss ss
26.4199 73.5048
26.4199 73.5048
-0.004 20.1573
ITEM: ATOMS id xs ys zs c_msd_abov[4] 
2881 0.52252 0.52252 0.955901 1.12705 
ITEM: TIMESTEP
2640
ITEM: NUMBER OF ATOMS
1
ITEM: BOX BOUNDS ss ss ss
26.4199 73.5048
26.4199 73.5048
-0.004 20.1573
ITEM: ATOMS id xs ys zs c_msd_abov[4] 
2881 0.523136 0.523136 0.961844 1.0104 
ITEM: TIMESTEP
2720
ITEM: NUMBER OF ATOMS
1
ITEM: BOX BOUNDS ss ss ss
26.4199 73.5048
26.4199 73.5048
-0.004 20.1573
ITEM: ATOMS id xs ys zs c_msd_abov[4] 
2881 0.523092 0.523092 0.963652 0.973818 
ITEM: TIMESTEP
2800
ITEM: NUMBER OF ATOMS
1
ITEM: BOX BOUNDS ss ss ss
26.4199 73.5048
26.4199 73.5048
-0.004 20.1573
ITEM: ATOMS id xs ys zs c_msd_abov[4] 
2881 0.522126 0.522126 0.965821 0.926184 
ITEM: TIMESTEP
2880
ITEM: NUMBER OF ATOMS
1
ITEM: BOX BOUNDS ss ss ss
26.4199 73.5048
26.4199 73.5048
-0.004 20.1573
ITEM: ATOMS id xs ys zs c_msd_abov[4] 
2881 0.521273 0.521273 0.969564 0.850854 
ITEM: TIMESTEP
2960
ITEM: NUMBER OF ATOMS
1
ITEM: BOX BOUNDS ss ss ss
26.4199 73.5048
26.4199 73.5048
-0.004 20.1573
ITEM: ATOMS id xs ys zs c_msd_abov[4] 
2881 0.520646 0.520646 0.967288 0.899055 
ITEM: TIMESTEP
3040
ITEM: NUMBER OF ATOMS
1
ITEM: BOX BOUNDS ss ss ss
26.4199 73.5048
26.4199 73.5048
-0.004 20.1573
ITEM: ATOMS id xs ys zs c_msd_abov[4] 
2881 0.520667 0.520667 0.972828 0.78764 
ITEM: TIMESTEP
3120
ITEM: NUMBER OF ATOMS
1
ITEM: BOX BOUNDS ss ss ss
26.4199 73.5048
26.4199 73.5048
-0.004 20.1573
ITEM: ATOMS id xs ys zs c_msd_abov[4] 
2881 0.520963 0.520963 0.982254 0.596597 
ITEM: TIMESTEP
3200
ITEM: NUMBER OF ATOMS
1
ITEM: BOX BOUNDS ss ss ss
26.4199 73.5048
26.4199 73.5048
-0.004 20.1573
ITEM: ATOMS id xs ys zs c_msd_abov[4] 
2881 0.520515 0.520515 0.980633 0.63227 
ITEM: TIMESTEP
3280
ITEM: NUMBER OF ATOMS
1
ITEM: BOX BOUNDS ss ss ss
26.4166 73.5306
26.4166 73.5306
-0.004 19.7693
ITEM: ATOMS id xs ys zs c_msd_abov[4] 
2881 0.51928 0.51928 1.00293 0.585148 
ITEM: TIMESTEP
3360
ITEM: NUMBER OF ATOMS
1
ITEM: BOX BOUNDS ss ss ss
26.4166 73.5306
26.4166 73.5306
-0.004 19.7693
ITEM: ATOMS id xs ys zs c_msd_abov[4] 
2881 0.519622 0.519622 1.01696 0.314464 
ITEM: TIMESTEP
3440
ITEM: NUMBER OF ATOMS
1
ITEM: BOX BOUNDS ss ss ss
26.4166 73.5306
26.4166 73.5306
-0.004 19.7693
ITEM: ATOMS id xs ys zs c_msd_abov[4] 
2881 0.520562 0.520562 1.02148 0.208835 
ITEM: TIMESTEP
3520
ITEM: NUMBER OF ATOMS
1
ITEM: BOX BOUNDS ss ss ss
26.4166 73.5306
26.4166 73.5306
-0.004 19.7693
ITEM: ATOMS id xs ys zs c_msd_abov[4] 
2881 0.521276 0.521276 1.025 0.130891 
ITEM: TIMESTEP
3600
ITEM: NUMBER OF ATOMS
1
ITEM: BOX BOUNDS ss ss ss
26.4166 73.5306
26.4166 73.5306
-0.004 19.7693
ITEM: ATOMS id xs ys zs c_msd_abov[4] 
2881 0.521439 0.521439 1.02423 0.145645 
ITEM: TIMESTEP
3680
ITEM: NUMBER OF ATOMS
1
ITEM: BOX BOUNDS ss ss ss
26.4166 73.5306
26.4166 73.5306
-0.004 19.7693
ITEM: ATOMS id xs ys zs c_msd_abov[4] 
2881 0.521145 0.521145 1.01238 0.380602 
ITEM: TIMESTEP
3760
ITEM: NUMBER OF ATOMS
1
ITEM: BOX BOUNDS ss ss ss
26.4166 73.5306
26.4166 73.5306
-0.004 19.7693
ITEM: ATOMS id xs ys zs c_msd_abov[4] 
2881 0.520381 0.520381 1.01034 0.426323 
ITEM: TIMESTEP
3840
ITEM: NUMBER OF ATOMS
1
ITEM: BOX BOUNDS ss ss ss
26.2392 73.6758
26.2392 73.6758
-0.004 20.0592
ITEM: ATOMS id xs ys zs c_msd_abov[4] 
2881 0.520661 0.520661 1.00147 0.31261 
ITEM: TIMESTEP
3920
ITEM: NUMBER OF ATOMS
1
ITEM: BOX BOUNDS ss ss ss
26.2392 73.6758
26.2392 73.6758
-0.004 20.0592
ITEM: ATOMS id xs ys zs c_msd_abov[4] 
2881 0.52149 0.52149 1.0004 0.326913 
ITEM: TIMESTEP
4000
ITEM: NUMBER OF ATOMS
1
ITEM: BOX BOUNDS ss ss ss
26.2392 73.6758
26.2392 73.6758
-0.004 20.0592
ITEM: ATOMS id xs ys zs c_msd_abov[4] 
2881 0.522573 0.522573 0.997674 0.386366 
ITEM: TIMESTEP
4080
ITEM: NUMBER OF ATOMS
1
ITEM: BOX BOUNDS ss ss ss
26.2392 73.6758
26.2392 73.6758
-0.004 20.0592
ITEM: ATOMS id xs ys zs c_msd_abov[4] 
2881 0.523406 0.523406 0.992277 0.503569 
ITEM: TIMESTEP
4160
ITEM: NUMBER OF ATOMS
1
ITEM: BOX BOUNDS ss ss ss
26.2392 73.6758
26.2392 73.6758
-0.004 20.0592
ITEM: ATOMS id xs ys zs c_msd_abov[4] 
2881 0.523592 0.523592 0.987937 0.591199 
ITEM: TIMESTEP
4240
ITEM: NUMBER OF ATOMS
1
ITEM: BOX BOUNDS ss ss ss
26.2392 73.6758
26.2392 73.6758
-0.004 20.0592
ITEM: ATOMS id xs ys zs c_msd_abov[4] 
2881 0.523739 0.523739 0.990651 0.540677 
ITEM: TIMESTEP
4320
ITEM: NUMBER OF ATOMS
1
ITEM: BOX BOUNDS ss ss ss
26.2392 73.6758
26.2392 73.6758
-0.004 20.0592
ITEM: ATOMS id xs ys zs c_msd_abov[4] 
2881 0.524099 0.524099 0.993483 0.493464 
ITEM: TIMESTEP
4400
ITEM: NUMBER OF ATOMS
1
ITEM: BOX BOUNDS ss ss ss
26.2392 73.6758
26.2392 73.6758
-0.004 20.0592
ITEM: ATOMS id xs ys zs c_msd_abov[4] 
2881 0.524297 0.524297 0.995459 0.461172 
ITEM: TIMESTEP
4480
ITEM: NUMBER OF ATOMS
1
ITEM: BOX BOUNDS ss ss ss
26.2392 73.6758
26.2392 73.6758
-0.004 20.0592
ITEM: ATOMS id xs ys zs c_msd_abov[4] 
2881 0.523928 0.523928 0.998953 0.386972 
ITEM: TIMESTEP
4560
ITEM: NUMBER OF ATOMS
1
ITEM: BOX BOUNDS ss ss ss
26.2392 73.6758
26.2392 73.6758
-0.004 20.0592
ITEM: ATOMS id xs ys zs c_msd_abov[4] 
2881 0.522986 0.522986 1.00305 0.287775 
ITEM: TIMESTEP
4640
ITEM: NUMBER OF ATOMS
1
ITEM: BOX BOUNDS ss ss ss
26.2392 73.6758
26.2392 73.6758
-0.004 20.0592
ITEM: ATOMS id xs ys zs c_msd_abov[4] 
2881 0.521971 0.521971 1.00934 0.148795 
ITEM: TIMESTEP
4720
ITEM: NUMBER OF ATOMS
1
ITEM: BOX BOUNDS ss ss ss
26.4571 73.4732
26.4571 73.4732
-0.004 20.313
ITEM: ATOMS id xs ys zs c_msd_abov[4] 
2881 0.521522 0.521522 1.00118 0.0582203 
ITEM: TIMESTEP
4800
ITEM: NUMBER OF ATOMS
1
ITEM: BOX BOUNDS ss ss ss
26.4571 73.4732
26.4571 73.4732
-0.004 20.313
ITEM: ATOMS id xs ys zs c_msd_abov[4] 
2881 0.521577 0.521577 0.997398 0.134091 
ITEM: TIMESTEP
4880
ITEM: NUMBER OF ATOMS
1
ITEM: BOX BOUNDS ss ss ss
26.4571 73.4732
26.4571 73.4732
-0.004 20.313
ITEM: ATOMS id xs ys zs c_msd_abov[4] 
2881 0.521267 0.521267 0.993551 0.213912 
ITEM: TIMESTEP
4960
ITEM: NUMBER OF ATOMS
1
ITEM: BOX BOUNDS ss ss ss
26.4571 73.4732
26.4571 73.4732
-0.004 20.313
ITEM: ATOMS id xs ys zs c_msd_abov[4] 
2881 0.51981 0.51981 0.994613 0.227842 
ITEM: TIMESTEP
5040
ITEM: NUMBER OF ATOMS
1
ITEM: BOX BOUNDS ss ss ss
26.4571 73.4732
26.4571 73.4732
-0.004 20.313
ITEM: ATOMS id xs ys zs c_msd_abov[4] 
2881 0.518603 0.518603 0.990174 0.347738 
ITEM: TIMESTEP
5120
ITEM: NUMBER OF ATOMS
1
ITEM: BOX BOUNDS ss ss ss
26.4571 73.4732
26.4571 73.4732
-0.004 20.313
ITEM: ATOMS id xs ys zs c_msd_abov[4] 
2881 0.518686 0.518686 0.983818 0.455898 
ITEM: TIMESTEP
5200
ITEM: NUMBER OF ATOMS
1
ITEM: BOX BOUNDS ss ss ss
26.2733 73.6087
26.2733 73.6087
-0.004 19.9471
ITEM: ATOMS id xs ys zs c_msd_abov[4] 
2881 0.520087 0.520087 0.998267 0.499213 
ITEM: TIMESTEP
5280
ITEM: NUMBER OF ATOMS
1
ITEM: BOX BOUNDS ss ss ss
26.2733 73.6087
26.2733 73.6087
-0.004 19.9471
ITEM: ATOMS id xs ys zs c_msd_abov[4] 
2881 0.521216 0.521216 0.993847 0.572444 
ITEM: TIMESTEP
5360
ITEM: NUMBER OF ATOMS
1
ITEM: BOX BOUNDS ss ss ss
26.2733 73.6087
26.2733 73.6087
-0.004 19.9471
ITEM: ATOMS id xs ys zs c_msd_abov[4] 
2881 0.522362 0.522362 0.994294 0.561137 
ITEM: TIMESTEP
5440
ITEM: NUMBER OF ATOMS
1
ITEM: BOX BOUNDS ss ss ss
26.2733 73.6087
26.2733 73.6087
-0.004 19.9471
ITEM: ATOMS id xs ys zs c_msd_abov[4] 
2881 0.523331 0.523331 0.993239 0.588036 
ITEM: TIMESTEP
5520
ITEM: NUMBER OF ATOMS
1
ITEM: BOX BOUNDS ss ss ss
26.2733 73.6087
26.2733 73.6087
-0.004 19.9471
ITEM: ATOMS id xs ys zs c_msd_abov[4] 
2881 0.524147 0.524147 0.982821 0.801978 
ITEM: TIMESTEP
5600
ITEM: NUMBER OF ATOMS
1
ITEM: BOX BOUNDS ss ss ss
26.2733 73.6087
26.2733 73.6087
-0.004 19.9471
ITEM: ATOMS id xs ys zs c_msd_abov[4] 
2881 0.523866 0.523866 0.978115 0.89181 
ITEM: TIMESTEP
5680
ITEM: NUMBER OF ATOMS
1
ITEM: BOX BOUNDS ss ss ss
26.2733 73.6087
26.2733 73.6087
-0.004 19.9471
ITEM: ATOMS id xs ys zs c_msd_abov[4] 
2881 0.521911 0.521911 0.984028 0.765644 
ITEM: TIMESTEP
5760
ITEM: NUMBER OF ATOMS
1
ITEM: BOX BOUNDS ss ss ss
26.3093 73.626
26.3093 73.626
-0.004 19.6401
ITEM: ATOMS id xs ys zs c_msd_abov[4] 
2881 0.520571 0.520571 0.997227 0.810738 
ITEM: TIMESTEP
5840
ITEM: NUMBER OF ATOMS
1
ITEM: BOX BOUNDS ss ss ss
26.3093 73.626
26.3093 73.626
-0.004 19.6401
ITEM: ATOMS id xs ys zs c_msd_abov[4] 
2881 0.521367 0.521367 0.984814 1.05223 
ITEM: TIMESTEP
5920
ITEM: NUMBER OF ATOMS
1
ITEM: BOX BOUNDS ss ss ss
26.3093 73.626
26.3093 73.626
-0.004 19.6401
ITEM: ATOMS id xs ys zs c_msd_abov[4] 
2881 0.52132 0.52132 0.976707 1.2115 
ITEM: TIMESTEP
6000
ITEM: NUMBER OF ATOMS
1
ITEM: BOX BOUNDS ss ss ss
26.3093 73.626
26.3093 73.626
-0.004 19.6401
ITEM: ATOMS id xs ys zs c_msd_abov[4] 
2881 0.521044 0.521044 0.972168 1.30097 
ITEM: TIMESTEP
6080
ITEM: NUMBER OF ATOMS
1
ITEM: BOX BOUNDS ss ss ss
26.3093 73.626
26.3093 73.626
-0.004 19.6401
ITEM: ATOMS id xs ys zs c_msd_abov[4] 
2881 0.522104 0.522104 0.974408 1.25725 
ITEM: TIMESTEP
6160
ITEM: NUMBER OF ATOMS
1
ITEM: BOX BOUNDS ss ss ss
26.3093 73.626
26.3093 73.626
-0.004 19.6401
ITEM: ATOMS id xs ys zs c_msd_abov[4] 
2881 0.522151 0.522151 0.980492 1.13792 
ITEM: TIMESTEP
6240
ITEM: NUMBER OF ATOMS
1
ITEM: BOX BOUNDS ss ss ss
26.3093 73.626
26.3093 73.626
-0.004 19.6401
ITEM: ATOMS id xs ys zs c_msd_abov[4] 
2881 0.522015 0.522015 0.990574 0.939673 
ITEM: TIMESTEP
6320
ITEM: NUMBER OF ATOMS
1
ITEM: BOX BOUNDS ss ss ss
26.3093 73.626
26.3093 73.626
-0.004 19.6401
ITEM: ATOMS id xs ys zs c_msd_abov[4] 
2881 0.522693 0.522693 1.00784 0.605219 
ITEM: TIMESTEP
6400
ITEM: NUMBER OF ATOMS
1
ITEM: BOX BOUNDS ss ss ss
26.2868 73.6469
26.2868 73.6469
-0.004 20.0237
ITEM: ATOMS id xs ys zs c_msd_abov[4] 
2881 0.52342 0.52342 1.00057 0.381225 
ITEM: TIMESTEP
6480
ITEM: NUMBER OF ATOMS
1
ITEM: BOX BOUNDS ss ss ss
26.2868 73.6469
26.2868 73.6469
-0.004 20.0237
ITEM: ATOMS id xs ys zs c_msd_abov[4] 
2881 0.523923 0.523923 1.00581 0.301446 
ITEM: TIMESTEP
6560
ITEM: NUMBER OF ATOMS
1
ITEM: BOX BOUNDS ss ss ss
26.2868 73.6469
26.2868 73.6469
-0.004 20.0237
ITEM: ATOMS id xs ys zs c_msd_abov[4] 
2881 0.523463 0.523463 1.01653 0.137373 
ITEM: TIMESTEP
6640
ITEM: NUMBER OF ATOMS
1
ITEM: BOX BOUNDS ss ss ss
26.2868 73.6469
26.2868 73.6469
-0.004 20.0237
ITEM: ATOMS id xs ys zs c_msd_abov[4] 
2881 0.521684 0.521684 1.02463 0.123587 
ITEM: TIMESTEP
6720
ITEM: NUMBER OF ATOMS
1
ITEM: BOX BOUNDS ss ss ss
26.2868 73.6469
26.2868 73.6469
-0.004 20.0237
ITEM: ATOMS id xs ys zs c_msd_abov[4] 
2881 0.519881 0.519881 1.01923 0.109218 
ITEM: TIMESTEP
6800
ITEM: NUMBER OF ATOMS
1
ITEM: BOX BOUNDS ss ss ss
26.2868 73.6469
26.2868 73.6469
-0.004 20.0237
ITEM: ATOMS id xs ys zs c_msd_abov[4] 
2881 0.519749 0.519749 1.01705 0.120535 
ITEM: TIMESTEP
6880
ITEM: NUMBER OF ATOMS
1
ITEM: BOX BOUNDS ss ss ss
26.2868 73.6469
26.2868 73.6469
-0.004 20.0237
ITEM: ATOMS id xs ys zs c_msd_abov[4] 
2881 0.521033 0.521033 1.02406 0.115828 
ITEM: TIMESTEP
6960
ITEM: NUMBER OF ATOMS
1
ITEM: BOX BOUNDS ss ss ss
26.2868 73.6469
26.2868 73.6469
-0.004 20.0237
ITEM: ATOMS id xs ys zs c_msd_abov[4] 
2881 0.521282 0.521282 1.02124 0.0569684 
ITEM: TIMESTEP
7040
ITEM: NUMBER OF ATOMS
1
ITEM: BOX BOUNDS ss ss ss
26.3855 73.5158
26.3855 73.5158
-0.004 20.4509
ITEM: ATOMS id xs ys zs c_msd_abov[4] 
2881 0.520915 0.520915 0.990052 0.161938 
ITEM: TIMESTEP
7120
ITEM: NUMBER OF ATOMS
1
ITEM: BOX BOUNDS ss ss ss
26.3855 73.5158
26.3855 73.5158
-0.004 20.4509
ITEM: ATOMS id xs ys zs c_msd_abov[4] 
2881 0.522342 0.522342 0.986971 0.211286 
ITEM: TIMESTEP
7200
ITEM: NUMBER OF ATOMS
1
ITEM: BOX BOUNDS ss ss ss
26.3855 73.5158
26.3855 73.5158
-0.004 20.4509
ITEM: ATOMS id xs ys zs c_msd_abov[4] 
2881 0.524145 0.524145 0.982607 0.332901 
ITEM: TIMESTEP
7280
ITEM: NUMBER OF ATOMS
1
ITEM: BOX BOUNDS ss ss ss
26.3855 73.5158
26.3855 73.5158
-0.004 20.4509
ITEM: ATOMS id xs ys zs c_msd_abov[4] 
2881 0.523419 0.523419 0.975249 0.459998 
ITEM: TIMESTEP
7360
ITEM: NUMBER OF ATOMS
1
ITEM: BOX BOUNDS ss ss ss
26.3855 73.5158
26.3855 73.5158
-0.004 20.4509
ITEM: ATOMS id xs ys zs c_msd_abov[4] 
2881 0.524012 0.524012 0.968557 0.60226 
ITEM: TIMESTEP
7440
ITEM: NUMBER OF ATOMS
1
ITEM: BOX BOUNDS ss ss ss
26.4187 73.5737
26.4187 73.5737
-0.004 19.7953
ITEM: ATOMS id xs ys zs c_msd_abov[4] 
2881 0.524867 0.524867 0.998434 0.681221 
ITEM: TIMESTEP
7520
ITEM: NUMBER OF ATOMS
1
ITEM: BOX BOUNDS ss ss ss
26.4187 73.5737
26.4187 73.5737
-0.004 19.7953
ITEM: ATOMS id xs ys zs c_msd_abov[4] 
2881 0.523808 0.523808 1.00101 0.608807 
ITEM: TIMESTEP
7600
ITEM: NUMBER OF ATOMS
1
ITEM: BOX BOUNDS ss ss ss
26.4187 73.5737
26.4187 73.5737
-0.004 19.7953
ITEM: ATOMS id xs ys zs c_msd_abov[4] 
2881 0.522508 0.522508 1.00597 0.491361 
ITEM: TIMESTEP
7680
ITEM: NUMBER OF ATOMS
1
ITEM: BOX BOUNDS ss ss ss
26.4187 73.5737
26.4187 73.5737
-0.004 19.7953
ITEM: ATOMS id xs ys zs c_msd_abov[4] 
2881 0.522093 0.522093 1.01255 0.358073 
ITEM: TIMESTEP
7760
ITEM: NUMBER OF ATOMS
1
ITEM: BOX BOUNDS ss ss ss
26.4187 73.5737
26.4187 73.5737
-0.004 19.7953
ITEM: ATOMS id xs ys zs c_msd_abov[4] 
2881 0.519749 0.519749 1.01698 0.274696 
ITEM: TIMESTEP
7840
ITEM: NUMBER OF ATOMS
1
ITEM: BOX BOUNDS ss ss ss
26.3116 73.5918
26.3116 73.5918
-0.004 20.1483
ITEM: ATOMS id xs ys zs c_msd_abov[4] 
2881 0.519399 0.519399 1.00028 0.29087 
ITEM: TIMESTEP
7920
ITEM: NUMBER OF ATOMS
1
ITEM: BOX BOUNDS ss ss ss
26.3116 73.5918
26.3116 73.5918
-0.004 20.1483
ITEM: ATOMS id xs ys zs c_msd_abov[4] 
2881 0.521079 0.521079 0.996439 0.32165 
ITEM: TIMESTEP
8000
ITEM: NUMBER OF ATOMS
1
ITEM: BOX BOUNDS ss ss ss
26.3116 73.5918
26.3116 73.5918
-0.004 20.1483
ITEM: ATOMS id xs ys zs c_msd_abov[4] 
2881 0.522041 0.522041 0.984499 0.558198 
ITEM: TIMESTEP
8080
ITEM: NUMBER OF ATOMS
1
ITEM: BOX BOUNDS ss ss ss
26.3116 73.5918
26.3116 73.5918
-0.004 20.1483
ITEM: ATOMS id xs ys zs c_msd_abov[4] 
2881 0.520162 0.520162 0.975562 0.746785 
ITEM: TIMESTEP
8160
ITEM: NUMBER OF ATOMS
1
ITEM: BOX BOUNDS ss ss ss
26.3116 73.5918
26.3116 73.5918
-0.004 20.1483
ITEM: ATOMS id xs ys zs c_msd_abov[4] 
2881 0.519026 0.519026 0.967338 0.92348 
ITEM: TIMESTEP
8240
ITEM: NUMBER OF ATOMS
1
ITEM: BOX BOUNDS ss ss ss
26.3116 73.5918
26.3116 73.5918
-0.004 20.1483
ITEM: ATOMS id xs ys zs c_msd_abov[4] 
2881 0.51888 0.51888 0.959315 1.08399 
ITEM: TIMESTEP
8320
ITEM: NUMBER OF ATOMS
1
ITEM: BOX BOUNDS ss ss ss
26.3116 73.5918
26.3116 73.5918
-0.004 20.1483
ITEM: ATOMS id xs ys zs c_msd_abov[4] 
2881 0.518897 0.518897 0.96388 0.99348 
ITEM: TIMESTEP
8400
ITEM: NUMBER OF ATOMS
1
ITEM: BOX BOUNDS ss ss ss
26.3252 73.6601
26.3252 73.6601
-0.004 19.5518
ITEM: ATOMS id xs ys zs c_msd_abov[4] 
2881 0.518959 0.518959 1.00244 0.805767 
ITEM: TIMESTEP
8480
ITEM: NUMBER OF ATOMS
1
ITEM: BOX BOUNDS ss ss ss
26.3252 73.6601
26.3252 73.6601
-0.004 19.5518
ITEM: ATOMS id xs ys zs c_msd_abov[4] 
2881 0.519869 0.519869 1.00814 0.686962 
ITEM: TIMESTEP
8560
ITEM: NUMBER OF ATOMS
1
ITEM: BOX BOUNDS ss ss ss
26.3252 73.6601
26.3252 73.6601
-0.004 19.5518
ITEM: ATOMS id xs ys zs c_msd_abov[4] 
2881 0.522081 0.522081 1.02287 0.401906 
ITEM: TIMESTEP
8640
ITEM: NUMBER OF ATOMS
1
ITEM: BOX BOUNDS ss ss ss
26.3252 73.6601
26.3252 73.6601
-0.004 19.5518
ITEM: ATOMS id xs ys zs c_msd_abov[4] 
2881 0.52453 0.52453 1.03234 0.317747 
ITEM: TIMESTEP
8720
ITEM: NUMBER OF ATOMS
1
ITEM: BOX BOUNDS ss ss ss
26.3252 73.6601
26.3252 73.6601
-0.004 19.5518
ITEM: ATOMS id xs ys zs c_msd_abov[4] 
2881 0.525216 0.525216 1.02769 0.414026 
ITEM: TIMESTEP
8800
ITEM: NUMBER OF ATOMS
1
ITEM: BOX BOUNDS ss ss ss
26.3252 73.6601
26.3252 73.6601
-0.004 19.5518
ITEM: ATOMS id xs ys zs c_msd_abov[4] 
2881 0.523929 0.523929 1.02694 0.37258 
ITEM: TIMESTEP
8880
ITEM: NUMBER OF ATOMS
1
ITEM: BOX BOUNDS ss ss ss
26.3252 73.6601
26.3252 73.6601
-0.004 19.5518
ITEM: ATOMS id xs ys zs c_msd_abov[4] 
2881 0.523507 0.523507 1.02908 0.32213 
ITEM: TIMESTEP
8960
ITEM: NUMBER OF ATOMS
1
ITEM: BOX BOUNDS ss ss ss
26.3252 73.6601
26.3252 73.6601
-0.004 19.5518
ITEM: ATOMS id xs ys zs c_msd_abov[4] 
2881 0.522784 0.522784 1.02143 0.440231 
ITEM: TIMESTEP
9040
ITEM: NUMBER OF ATOMS
1
ITEM: BOX BOUNDS ss ss ss
26.3252 73.6601
26.3252 73.6601
-0.004 19.5518
ITEM: ATOMS id xs ys zs c_msd_abov[4] 
2881 0.520554 0.520554 1.01484 0.552631 
ITEM: TIMESTEP
9120
ITEM: NUMBER OF ATOMS
1
ITEM: BOX BOUNDS ss ss ss
26.3252 73.6601
26.3252 73.6601
-0.004 19.5518
ITEM: ATOMS id xs ys zs c_msd_abov[4] 
2881 0.519732 0.519732 1.00868 0.67744 
ITEM: TIMESTEP
9200
ITEM: NUMBER OF ATOMS
1
ITEM: BOX BOUNDS ss ss ss
26.2735 73.6455
26.2735 73.6455
-0.004 19.6008
ITEM: ATOMS id xs ys zs c_msd_abov[4] 
2881 0.520396 0.520396 0.991144 0.970427 
ITEM: TIMESTEP
9280
ITEM: NUMBER OF ATOMS
1
ITEM: BOX BOUNDS ss ss ss
26.2735 73.6455
26.2735 73.6455
-0.004 19.6008
ITEM: ATOMS id xs ys zs c_msd_abov[4] 
2881 0.519531 0.519531 0.983251 1.13046 
ITEM: TIMESTEP
9360
ITEM: NUMBER OF ATOMS
1
ITEM: BOX BOUNDS ss ss ss
26.2735 73.6455
26.2735 73.6455
-0.004 19.6008
ITEM: ATOMS id xs ys zs c_msd_abov[4] 
2881 0.520627 0.520627 0.986966 1.05093 
ITEM: TIMESTEP
9440
ITEM: NUMBER OF ATOMS
1
ITEM: BOX BOUNDS ss ss ss
26.2735 73.6455
26.2735 73.6455
-0.004 19.6008
ITEM: ATOMS id xs ys zs c_msd_abov[4] 
2881 0.521901 0.521901 0.991419 0.961542 
ITEM: TIMESTEP
9520
ITEM: NUMBER OF ATOMS
1
ITEM: BOX BOUNDS ss ss ss
26.2735 73.6455
26.2735 73.6455
-0.004 19.6008
ITEM: ATOMS id xs ys zs c_msd_abov[4] 
2881 0.521741 0.521741 1.00615 0.672685 
ITEM: TIMESTEP
9600
ITEM: NUMBER OF ATOMS
1
ITEM: BOX BOUNDS ss ss ss
26.2735 73.6455
26.2735 73.6455
-0.004 19.6008
ITEM: ATOMS id xs ys zs c_msd_abov[4] 
2881 0.522653 0.522653 1.02026 0.401575 
ITEM: TIMESTEP
9680
ITEM: NUMBER OF ATOMS
1
ITEM: BOX BOUNDS ss ss ss
26.1201 73.6756
26.1201 73.6756
-0.004 20.026
ITEM: ATOMS id xs ys zs c_msd_abov[4] 
2881 0.524729 0.524729 0.998868 0.410409 
ITEM: TIMESTEP
9760
ITEM: NUMBER OF ATOMS
1
ITEM: BOX BOUNDS ss ss ss
26.1201 73.6756
26.1201 73.6756
-0.004 20.026
ITEM: ATOMS id xs ys zs c_msd_abov[4] 
2881 0.524748 0.524748 0.998848 0.411162 
ITEM: TIMESTEP
9840
ITEM: NUMBER OF ATOMS
1
ITEM: BOX BOUNDS ss ss ss
26.1201 73.6756
26.1201 73.6756
-0.004 20.026
ITEM: ATOMS id xs ys zs c_msd_abov[4] 
2881 0.525583 0.525583 1.0073 0.287596 
ITEM: TIMESTEP
9920
ITEM: NUMBER OF ATOMS
1
ITEM: BOX BOUNDS ss ss ss
26.1201 73.6756
26.1201 73.6756
-0.004 20.026
ITEM: ATOMS id xs ys zs c_msd_abov[4] 
2881 0.524517 0.524517 1.00994 0.202424 
ITEM: TIMESTEP
10000
ITEM: NUMBER OF ATOMS
1
ITEM: BOX BOUNDS ss ss ss
26.1201 73.6756
26.1201 73.6756
-0.004 20.026
ITEM: ATOMS id xs ys zs c_msd_abov[4] 
2881 0.521122 0.521122 1.0106 0.194709 
ITEM: TIMESTEP
10080
ITEM: NUMBER OF ATOMS
1
ITEM: BOX BOUNDS ss ss ss
26.1201 73.6756
26.1201 73.6756
-0.004 20.026
ITEM: ATOMS id xs ys zs c_msd_abov[4] 
2881 0.520278 0.520278 1.01358 0.198412 
ITEM: TIMESTEP
10160
ITEM: NUMBER OF ATOMS
1
ITEM: BOX BOUNDS ss ss ss
26.3024 73.6329
26.3024 73.6329
-0.004 20.3058
ITEM: ATOMS id xs ys zs c_msd_abov[4] 
2881 0.520243 0.520243 0.99906 0.136123 
ITEM: TIMESTEP
10240
ITEM: NUMBER OF ATOMS
1
ITEM: BOX BOUNDS ss ss ss
26.3024 73.6329
26.3024 73.6329
-0.004 20.3058
ITEM: ATOMS id xs ys zs c_msd_abov[4] 
2881 0.520695 0.520695 0.998174 0.136209 
ITEM: TIMESTEP
10320
ITEM: NUMBER OF ATOMS
1
ITEM: BOX BOUNDS ss ss ss
26.3024 73.6329
26.3024 73.6329
-0.004 20.3058
ITEM: ATOMS id xs ys zs c_msd_abov[4] 
2881 0.520694 0.520694 0.998674 0.126941 
ITEM: TIMESTEP
10400
ITEM: NUMBER OF ATOMS
1
ITEM: BOX BOUNDS ss ss ss
26.3024 73.6329
26.3024 73.6329
-0.004 20.3058
ITEM: ATOMS id xs ys zs c_msd_abov[4] 
2881 0.521457 0.521457 0.994816 0.193473 
ITEM: TIMESTEP
10480
ITEM: NUMBER OF ATOMS
1
ITEM: BOX BOUNDS ss ss ss
26.3024 73.6329
26.3024 73.6329
-0.004 20.3058
ITEM: ATOMS id xs ys zs c_msd_abov[4] 
2881 0.521175 0.521175 0.993783 0.215497 
ITEM: TIMESTEP
10560
ITEM: NUMBER OF ATOMS
1
ITEM: BOX BOUNDS ss ss ss
26.3024 73.6329
26.3024 73.6329
-0.004 20.3058
ITEM: ATOMS id xs ys zs c_msd_abov[4] 
2881 0.519987 0.519987 0.993903 0.234791 
ITEM: TIMESTEP
10640
ITEM: NUMBER OF ATOMS
1
ITEM: BOX BOUNDS ss ss ss
26.3024 73.6329
26.3024 73.6329
-0.004 20.3058
ITEM: ATOMS id xs ys zs c_msd_abov[4] 
2881 0.520395 0.520395 0.990665 0.287342 
ITEM: TIMESTEP
10720
ITEM: NUMBER OF ATOMS
1
ITEM: BOX BOUNDS ss ss ss
26.3024 73.6329
26.3024 73.6329
-0.004 20.3058
ITEM: ATOMS id xs ys zs c_msd_abov[4] 
2881 0.521472 0.521472 0.99166 0.257551 
ITEM: TIMESTEP
10800
ITEM: NUMBER OF ATOMS
1
ITEM: BOX BOUNDS ss ss ss
26.1659 73.8157
26.1659 73.8157
-0.004 20.1461
ITEM: ATOMS id xs ys zs c_msd_abov[4] 
2881 0.520861 0.520861 0.996812 0.312172 
ITEM: TIMESTEP
10880
ITEM: NUMBER OF ATOMS
1
ITEM: BOX BOUNDS ss ss ss
26.1659 73.8157
26.1659 73.8157
-0.004 20.1461
ITEM: ATOMS id xs ys zs c_msd_abov[4] 
2881 0.521406 0.521406 0.982943 0.592742 
ITEM: TIMESTEP
10960
ITEM: NUMBER OF ATOMS
1
ITEM: BOX BOUNDS ss ss ss
26.1659 73.8157
26.1659 73.8157
-0.004 20.1461
ITEM: ATOMS id xs ys zs c_msd_abov[4] 
2881 0.524055 0.524055 0.974478 0.791927 
ITEM: TIMESTEP
11040
ITEM: NUMBER OF ATOMS
1
ITEM: BOX BOUNDS ss ss ss
26.1659 73.8157
26.1659 73.8157
-0.004 20.1461
ITEM: ATOMS id xs ys zs c_msd_abov[4] 
2881 0.52522 0.52522 0.977059 0.768453 
ITEM: TIMESTEP
11120
ITEM: NUMBER OF ATOMS
1
ITEM: BOX BOUNDS ss ss ss
26.1659 73.8157
26.1659 73.8157
-0.004 20.1461
ITEM: ATOMS id xs ys zs c_msd_abov[4] 
2881 0.523815 0.523815 0.975814 0.761691 
ITEM: TIMESTEP
11200
ITEM: NUMBER OF ATOMS
1
ITEM: BOX BOUNDS ss ss ss
26.2948 73.6232
26.2948 73.6232
-0.004 19.6557
ITEM: ATOMS id xs ys zs c_msd_abov[4] 
2881 0.522352 0.522352 0.99646 0.809168 
ITEM: TIMESTEP
11280
ITEM: NUMBER OF ATOMS
1
ITEM: BOX BOUNDS ss ss ss
26.2948 73.6232
26.2948 73.6232
-0.004 19.6557
ITEM: ATOMS id xs ys zs c_msd_abov[4] 
2881 0.521436 0.521436 0.998495 0.768088 
ITEM: TIMESTEP
11360
ITEM: NUMBER OF ATOMS
1
ITEM: BOX BOUNDS ss ss ss
26.2948 73.6232
26.2948 73.6232
-0.004 19.6557
ITEM: ATOMS id xs ys zs c_msd_abov[4] 
2881 0.521786 0.521786 0.997918 0.779295 
ITEM: TIMESTEP
11440
ITEM: NUMBER OF ATOMS
1
ITEM: BOX BOUNDS ss ss ss
26.2948 73.6232
26.2948 73.6232
-0.004 19.6557
ITEM: ATOMS id xs ys zs c_msd_abov[4] 
2881 0.521371 0.521371 0.997346 0.790777 
ITEM: TIMESTEP
11520
ITEM: NUMBER OF ATOMS
1
ITEM: BOX BOUNDS ss ss ss
26.2948 73.6232
26.2948 73.6232
-0.004 19.6557
ITEM: ATOMS id xs ys zs c_msd_abov[4] 
2881 0.520152 0.520152 0.999839 0.748493 
ITEM: TIMESTEP
11600
ITEM: NUMBER OF ATOMS
1
ITEM: BOX BOUNDS ss ss ss
26.2948 73.6232
26.2948 73.6232
-0.004 19.6557
ITEM: ATOMS id xs ys zs c_msd_abov[4] 
2881 0.519728 0.519728 1.00149 0.720878 
ITEM: TIMESTEP
11680
ITEM: NUMBER OF ATOMS
1
ITEM: BOX BOUNDS ss ss ss
26.2948 73.6232
26.2948 73.6232
-0.004 19.6557
ITEM: ATOMS id xs ys zs c_msd_abov[4] 
2881 0.518877 0.518877 1.00852 0.600884 
ITEM: TIMESTEP
11760
ITEM: NUMBER OF ATOMS
1
ITEM: BOX BOUNDS ss ss ss
26.2948 73.6232
26.2948 73.6232
-0.004 19.6557
ITEM: ATOMS id xs ys zs c_msd_abov[4] 
2881 0.518464 0.518464 1.01296 0.529324 
ITEM: TIMESTEP
11840
ITEM: NUMBER OF ATOMS
1
ITEM: BOX BOUNDS ss ss ss
26.2948 73.6232
26.2948 73.6232
-0.004 19.6557
ITEM: ATOMS id xs ys zs c_msd_abov[4] 
2881 0.520108 0.520108 1.00683 0.613129 
ITEM: TIMESTEP
11920
ITEM: NUMBER OF ATOMS
1
ITEM: BOX BOUNDS ss ss ss
26.2948 73.6232
26.2948 73.6232
-0.004 19.6557
ITEM: ATOMS id xs ys zs c_msd_abov[4] 
2881 0.523083 0.523083 1.00188 0.70759 
ITEM: TIMESTEP
12000
ITEM: NUMBER OF ATOMS
1
ITEM: BOX BOUNDS ss ss ss
26.2948 73.6232
26.2948 73.6232
-0.004 19.6557
ITEM: ATOMS id xs ys zs c_msd_abov[4] 
2881 0.523971 0.523971 1.00464 0.665074 
ITEM: TIMESTEP
12080
ITEM: NUMBER OF ATOMS
1
ITEM: BOX BOUNDS ss ss ss
26.2948 73.6232
26.2948 73.6232
-0.004 19.6557
ITEM: ATOMS id xs ys zs c_msd_abov[4] 
2881 0.52322 0.52322 1.00574 0.633847 
ITEM: TIMESTEP
12160
ITEM: NUMBER OF ATOMS
1