ITEM: TIMESTEP
0
ITEM: NUMBER OF ATOMS
1
ITEM: BOX BOUNDS ss ss ss
26.5002 73.4304
26.5002 73.4304
-0.004 20.398
ITEM: ATOMS id xs ys zs c_msd_abov[4] 
2881 0.521728 0.521728 0.999804 0 
ITEM: TIMESTEP
80
ITEM: NUMBER OF ATOMS
1
ITEM: BOX BOUNDS ss ss ss
26.5002 73.4304
26.5002 73.4304
-0.004 20.398
ITEM: ATOMS id xs ys zs c_msd_abov[4] 
2881 0.521728 0.521728 0.98685 0.264277 
ITEM: TIMESTEP
160
ITEM: NUMBER OF ATOMS
1
ITEM: BOX BOUNDS ss ss ss
26.5002 73.4304
26.5002 73.4304
-0.004 20.398
ITEM: ATOMS id xs ys zs c_msd_abov[4] 
2881 0.521728 0.521728 0.970179 0.604411 
ITEM: TIMESTEP
240
ITEM: NUMBER OF ATOMS
1
ITEM: BOX BOUNDS ss ss ss
26.5002 73.4304
26.5002 73.4304
-0.004 20.398
ITEM: ATOMS id xs ys zs c_msd_abov[4] 
2881 0.521728 0.521728 0.96946 0.619087 
ITEM: TIMESTEP
320
ITEM: NUMBER OF ATOMS
1
ITEM: BOX BOUNDS ss ss ss
26.4785 73.4521
26.4785 73.4521
-0.004 19.583
ITEM: ATOMS id xs ys zs c_msd_abov[4] 
2881 0.521708 0.521708 0.998582 0.838742 
ITEM: TIMESTEP
400
ITEM: NUMBER OF ATOMS
1
ITEM: BOX BOUNDS ss ss ss
26.4785 73.4521
26.4785 73.4521
-0.004 19.583
ITEM: ATOMS id xs ys zs c_msd_abov[4] 
2881 0.521709 0.521709 0.987261 1.06049 
ITEM: TIMESTEP
480
ITEM: NUMBER OF ATOMS
1
ITEM: BOX BOUNDS ss ss ss
26.4785 73.4521
26.4785 73.4521
-0.004 19.583
ITEM: ATOMS id xs ys zs c_msd_abov[4] 
2881 0.521712 0.521712 0.992728 0.953388 
ITEM: TIMESTEP
560
ITEM: NUMBER OF ATOMS
1
ITEM: BOX BOUNDS ss ss ss
26.4785 73.4521
26.4785 73.4521
-0.004 19.583
ITEM: ATOMS id xs ys zs c_msd_abov[4] 
2881 0.521721 0.521721 0.993317 0.941853 
ITEM: TIMESTEP
640
ITEM: NUMBER OF ATOMS
1
ITEM: BOX BOUNDS ss ss ss
26.4785 73.4521
26.4785 73.4521
-0.004 19.583
ITEM: ATOMS id xs ys zs c_msd_abov[4] 
2881 0.521741 0.521741 0.993545 0.937404 
ITEM: TIMESTEP
720
ITEM: NUMBER OF ATOMS
1
ITEM: BOX BOUNDS ss ss ss
26.4785 73.4521
26.4785 73.4521
-0.004 19.583
ITEM: ATOMS id xs ys zs c_msd_abov[4] 
2881 0.521746 0.521746 1.00167 0.778235 
ITEM: TIMESTEP
800
ITEM: NUMBER OF ATOMS
1
ITEM: BOX BOUNDS ss ss ss
26.4785 73.4521
26.4785 73.4521
-0.004 19.583
ITEM: ATOMS id xs ys zs c_msd_abov[4] 
2881 0.521713 0.521713 1.00379 0.736669 
ITEM: TIMESTEP
880
ITEM: NUMBER OF ATOMS
1
ITEM: BOX BOUNDS ss ss ss
26.4785 73.4521
26.4785 73.4521
-0.004 19.583
ITEM: ATOMS id xs ys zs c_msd_abov[4] 
2881 0.521585 0.521585 1.00696 0.674618 
ITEM: TIMESTEP
960
ITEM: NUMBER OF ATOMS
1
ITEM: BOX BOUNDS ss ss ss
26.4785 73.4521
26.4785 73.4521
-0.004 19.583
ITEM: ATOMS id xs ys zs c_msd_abov[4] 
2881 0.521422 0.521422 1.01291 0.558431 
ITEM: TIMESTEP
1040
ITEM: NUMBER OF ATOMS
1
ITEM: BOX BOUNDS ss ss ss
26.4785 73.4521
26.4785 73.4521
-0.004 19.583
ITEM: ATOMS id xs ys zs c_msd_abov[4] 
2881 0.521307 0.521307 1.01406 0.536176 
ITEM: TIMESTEP
1120
ITEM: NUMBER OF ATOMS
1
ITEM: BOX BOUNDS ss ss ss
26.4785 73.4521
26.4785 73.4521
-0.004 19.583
ITEM: ATOMS id xs ys zs c_msd_abov[4] 
2881 0.521286 0.521286 1.02526 0.317521 
ITEM: TIMESTEP
1200
ITEM: NUMBER OF ATOMS
1
ITEM: BOX BOUNDS ss ss ss
26.4785 73.4521
26.4785 73.4521
-0.004 19.583
ITEM: ATOMS id xs ys zs c_msd_abov[4] 
2881 0.521302 0.521302 1.03586 0.111862 
ITEM: TIMESTEP
1280
ITEM: NUMBER OF ATOMS
1
ITEM: BOX BOUNDS ss ss ss
26.4223 73.5099
26.4223 73.5099
-0.004 20.2608
ITEM: ATOMS id xs ys zs c_msd_abov[4] 
2881 0.521245 0.521245 0.997973 0.176225 
ITEM: TIMESTEP
1360
ITEM: NUMBER OF ATOMS
1
ITEM: BOX BOUNDS ss ss ss
26.4223 73.5099
26.4223 73.5099
-0.004 20.2608
ITEM: ATOMS id xs ys zs c_msd_abov[4] 
2881 0.521319 0.521319 1.00529 0.0336077 
ITEM: TIMESTEP
1440
ITEM: NUMBER OF ATOMS
1
ITEM: BOX BOUNDS ss ss ss
26.4223 73.5099
26.4223 73.5099
-0.004 20.2608
ITEM: ATOMS id xs ys zs c_msd_abov[4] 
2881 0.521332 0.521332 1.01747 0.221781 
ITEM: TIMESTEP
1520
ITEM: NUMBER OF ATOMS
1
ITEM: BOX BOUNDS ss ss ss
26.4223 73.5099
26.4223 73.5099
-0.004 20.2608
ITEM: ATOMS id xs ys zs c_msd_abov[4] 
2881 0.521281 0.521281 1.01506 0.173612 
ITEM: TIMESTEP
1600
ITEM: NUMBER OF ATOMS
1
ITEM: BOX BOUNDS ss ss ss
26.4223 73.5099
26.4223 73.5099
-0.004 20.2608
ITEM: ATOMS id xs ys zs c_msd_abov[4] 
2881 0.521366 0.521366 1.01615 0.194938 
ITEM: TIMESTEP
1680
ITEM: NUMBER OF ATOMS
1
ITEM: BOX BOUNDS ss ss ss
26.4223 73.5099
26.4223 73.5099
-0.004 20.2608
ITEM: ATOMS id xs ys zs c_msd_abov[4] 
2881 0.521592 0.521592 1.01923 0.25647 
ITEM: TIMESTEP
1760
ITEM: NUMBER OF ATOMS
1
ITEM: BOX BOUNDS ss ss ss
26.4223 73.5099
26.4223 73.5099
-0.004 20.2608
ITEM: ATOMS id xs ys zs c_msd_abov[4] 
2881 0.521863 0.521863 1.00721 0.0197288 
ITEM: TIMESTEP
1840
ITEM: NUMBER OF ATOMS
1
ITEM: BOX BOUNDS ss ss ss
26.4223 73.5099
26.4223 73.5099
-0.004 20.2608
ITEM: ATOMS id xs ys zs c_msd_abov[4] 
2881 0.522312 0.522312 0.998192 0.175653 
ITEM: TIMESTEP
1920
ITEM: NUMBER OF ATOMS
1
ITEM: BOX BOUNDS ss ss ss
26.4223 73.5099
26.4223 73.5099
-0.004 20.2608
ITEM: ATOMS id xs ys zs c_msd_abov[4] 
2881 0.522514 0.522514 0.998635 0.171078 
ITEM: TIMESTEP
2000
ITEM: NUMBER OF ATOMS
1
ITEM: BOX BOUNDS ss ss ss
26.4158 73.5088
26.4158 73.5088
-0.004 20.1659
ITEM: ATOMS id xs ys zs c_msd_abov[4] 
2881 0.522476 0.522476 0.993114 0.370466 
ITEM: TIMESTEP
2080
ITEM: NUMBER OF ATOMS
1
ITEM: BOX BOUNDS ss ss ss
26.4158 73.5088
26.4158 73.5088
-0.004 20.1659
ITEM: ATOMS id xs ys zs c_msd_abov[4] 
2881 0.52221 0.52221 0.982188 0.588301 
ITEM: TIMESTEP
2160
ITEM: NUMBER OF ATOMS
1
ITEM: BOX BOUNDS ss ss ss
26.4158 73.5088
26.4158 73.5088
-0.004 20.1659
ITEM: ATOMS id xs ys zs c_msd_abov[4] 
2881 0.521939 0.521939 0.977917 0.67368 
ITEM: TIMESTEP
2240
ITEM: NUMBER OF ATOMS
1
ITEM: BOX BOUNDS ss ss ss
26.4158 73.5088
26.4158 73.5088
-0.004 20.1659
ITEM: ATOMS id xs ys zs c_msd_abov[4] 
2881 0.521449 0.521449 0.968047 0.872784 
ITEM: TIMESTEP
2320
ITEM: NUMBER OF ATOMS
1
ITEM: BOX BOUNDS ss ss ss
26.4158 73.5088
26.4158 73.5088
-0.004 20.1659
ITEM: ATOMS id xs ys zs c_msd_abov[4] 
2881 0.52103 0.52103 0.966471 0.905538 
ITEM: TIMESTEP
2400
ITEM: NUMBER OF ATOMS
1
ITEM: BOX BOUNDS ss ss ss
26.4158 73.5088
26.4158 73.5088
-0.004 20.1659
ITEM: ATOMS id xs ys zs c_msd_abov[4] 
2881 0.521543 0.521543 0.971491 0.803206 
ITEM: TIMESTEP
2480
ITEM: NUMBER OF ATOMS
1
ITEM: BOX BOUNDS ss ss ss
26.4158 73.5088
26.4158 73.5088
-0.004 20.1659
ITEM: ATOMS id xs ys zs c_msd_abov[4] 
2881 0.522089 0.522089 0.96285 0.977726 
ITEM: TIMESTEP
2560
ITEM: NUMBER OF ATOMS
1
ITEM: BOX BOUNDS ss ss ss
26.4158 73.5088
26.4158 73.5088
-0.004 20.1659
ITEM: ATOMS id xs ys zs c_msd_abov[4] 
2881 0.522542 0.522542 0.955086 1.13536 
ITEM: TIMESTEP
2640
ITEM: NUMBER OF ATOMS
1
ITEM: BOX BOUNDS ss ss ss
26.4158 73.5088
26.4158 73.5088
-0.004 20.1659
ITEM: ATOMS id xs ys zs c_msd_abov[4] 
2881 0.523177 0.523177 0.961006 1.01927 
ITEM: TIMESTEP
2720
ITEM: NUMBER OF ATOMS
1
ITEM: BOX BOUNDS ss ss ss
26.4158 73.5088
26.4158 73.5088
-0.004 20.1659
ITEM: ATOMS id xs ys zs c_msd_abov[4] 
2881 0.523135 0.523135 0.962825 0.982468 
ITEM: TIMESTEP
2800
ITEM: NUMBER OF ATOMS
1
ITEM: BOX BOUNDS ss ss ss
26.4158 73.5088
26.4158 73.5088
-0.004 20.1659
ITEM: ATOMS id xs ys zs c_msd_abov[4] 
2881 0.522144 0.522144 0.964913 0.93624 
ITEM: TIMESTEP
2880
ITEM: NUMBER OF ATOMS
1
ITEM: BOX BOUNDS ss ss ss
26.4158 73.5088
26.4158 73.5088
-0.004 20.1659
ITEM: ATOMS id xs ys zs c_msd_abov[4] 
2881 0.521272 0.521272 0.968669 0.860555 
ITEM: TIMESTEP
2960
ITEM: NUMBER OF ATOMS
1
ITEM: BOX BOUNDS ss ss ss
26.4158 73.5088
26.4158 73.5088
-0.004 20.1659
ITEM: ATOMS id xs ys zs c_msd_abov[4] 
2881 0.520632 0.520632 0.966503 0.906631 
ITEM: TIMESTEP
3040
ITEM: NUMBER OF ATOMS
1
ITEM: BOX BOUNDS ss ss ss
26.4158 73.5088
26.4158 73.5088
-0.004 20.1659
ITEM: ATOMS id xs ys zs c_msd_abov[4] 
2881 0.520654 0.520654 0.972191 0.792186 
ITEM: TIMESTEP
3120
ITEM: NUMBER OF ATOMS
1
ITEM: BOX BOUNDS ss ss ss
26.4158 73.5088
26.4158 73.5088
-0.004 20.1659
ITEM: ATOMS id xs ys zs c_msd_abov[4] 
2881 0.520956 0.520956 0.981882 0.595712 
ITEM: TIMESTEP
3200
ITEM: NUMBER OF ATOMS
1
ITEM: BOX BOUNDS ss ss ss
26.4158 73.5088
26.4158 73.5088
-0.004 20.1659
ITEM: ATOMS id xs ys zs c_msd_abov[4] 
2881 0.520484 0.520484 0.980396 0.628887 
ITEM: TIMESTEP
3280
ITEM: NUMBER OF ATOMS
1
ITEM: BOX BOUNDS ss ss ss
26.4067 73.5253
26.4067 73.5253
-0.004 19.7638
ITEM: ATOMS id xs ys zs c_msd_abov[4] 
2881 0.519357 0.519357 1.0033 0.584894 
ITEM: TIMESTEP
3360
ITEM: NUMBER OF ATOMS
1
ITEM: BOX BOUNDS ss ss ss
26.4067 73.5253
26.4067 73.5253
-0.004 19.7638
ITEM: ATOMS id xs ys zs c_msd_abov[4] 
2881 0.519722 0.519722 1.0176 0.30945 
ITEM: TIMESTEP
3440
ITEM: NUMBER OF ATOMS
1
ITEM: BOX BOUNDS ss ss ss
26.4067 73.5253
26.4067 73.5253
-0.004 19.7638
ITEM: ATOMS id xs ys zs c_msd_abov[4] 
2881 0.520723 0.520723 1.02224 0.19983 
ITEM: TIMESTEP
3520
ITEM: NUMBER OF ATOMS
1
ITEM: BOX BOUNDS ss ss ss
26.4067 73.5253
26.4067 73.5253
-0.004 19.7638
ITEM: ATOMS id xs ys zs c_msd_abov[4] 
2881 0.521457 0.521457 1.02567 0.123259 
ITEM: TIMESTEP
3600
ITEM: NUMBER OF ATOMS
1
ITEM: BOX BOUNDS ss ss ss
26.4067 73.5253
26.4067 73.5253
-0.004 19.7638
ITEM: ATOMS id xs ys zs c_msd_abov[4] 
2881 0.521577 0.521577 1.02474 0.141081 
ITEM: TIMESTEP
3680
ITEM: NUMBER OF ATOMS
1
ITEM: BOX BOUNDS ss ss ss
26.4067 73.5253
26.4067 73.5253
-0.004 19.7638
ITEM: ATOMS id xs ys zs c_msd_abov[4] 
2881 0.521245 0.521245 1.01264 0.381182 
ITEM: TIMESTEP
3760
ITEM: NUMBER OF ATOMS
1
ITEM: BOX BOUNDS ss ss ss
26.4067 73.5253
26.4067 73.5253
-0.004 19.7638
ITEM: ATOMS id xs ys zs c_msd_abov[4] 
2881 0.520472 0.520472 1.01057 0.42822 
ITEM: TIMESTEP
3840
ITEM: NUMBER OF ATOMS
1
ITEM: BOX BOUNDS ss ss ss
26.2316 73.6814
26.2316 73.6814
-0.004 20.0492
ITEM: ATOMS id xs ys zs c_msd_abov[4] 
2881 0.520571 0.520571 1.00221 0.309568 
ITEM: TIMESTEP
3920
ITEM: NUMBER OF ATOMS
1
ITEM: BOX BOUNDS ss ss ss
26.2316 73.6814
26.2316 73.6814
-0.004 20.0492
ITEM: ATOMS id xs ys zs c_msd_abov[4] 
2881 0.521393 0.521393 1.00201 0.304989 
ITEM: TIMESTEP
4000
ITEM: NUMBER OF ATOMS
1
ITEM: BOX BOUNDS ss ss ss
26.2316 73.6814
26.2316 73.6814
-0.004 20.0492
ITEM: ATOMS id xs ys zs c_msd_abov[4] 
2881 0.52253 0.52253 0.999657 0.356308 
ITEM: TIMESTEP
4080
ITEM: NUMBER OF ATOMS
1
ITEM: BOX BOUNDS ss ss ss
26.2316 73.6814
26.2316 73.6814
-0.004 20.0492
ITEM: ATOMS id xs ys zs c_msd_abov[4] 
2881 0.523438 0.523438 0.993883 0.482181 
ITEM: TIMESTEP
4160
ITEM: NUMBER OF ATOMS
1
ITEM: BOX BOUNDS ss ss ss
26.2316 73.6814
26.2316 73.6814
-0.004 20.0492
ITEM: ATOMS id xs ys zs c_msd_abov[4] 
2881 0.523592 0.523592 0.989882 0.562577 
ITEM: TIMESTEP
4240
ITEM: NUMBER OF ATOMS
1
ITEM: BOX BOUNDS ss ss ss
26.2316 73.6814
26.2316 73.6814
-0.004 20.0492
ITEM: ATOMS id xs ys zs c_msd_abov[4] 
2881 0.523753 0.523753 0.992899 0.50672 
ITEM: TIMESTEP
4320
ITEM: NUMBER OF ATOMS
1
ITEM: BOX BOUNDS ss ss ss
26.2316 73.6814
26.2316 73.6814
-0.004 20.0492
ITEM: ATOMS id xs ys zs c_msd_abov[4] 
2881 0.524172 0.524172 0.995353 0.468917 
ITEM: TIMESTEP
4400
ITEM: NUMBER OF ATOMS
1
ITEM: BOX BOUNDS ss ss ss
26.2316 73.6814
26.2316 73.6814
-0.004 20.0492
ITEM: ATOMS id xs ys zs c_msd_abov[4] 
2881 0.524435 0.524435 0.997385 0.438275 
ITEM: TIMESTEP
4480
ITEM: NUMBER OF ATOMS
1
ITEM: BOX BOUNDS ss ss ss
26.2316 73.6814
26.2316 73.6814
-0.004 20.0492
ITEM: ATOMS id xs ys zs c_msd_abov[4] 
2881 0.524131 0.524131 1.00054 0.372305 
ITEM: TIMESTEP
4560
ITEM: NUMBER OF ATOMS
1
ITEM: BOX BOUNDS ss ss ss
26.2316 73.6814
26.2316 73.6814
-0.004 20.0492
ITEM: ATOMS id xs ys zs c_msd_abov[4] 
2881 0.523154 0.523154 1.00382 0.285846 
ITEM: TIMESTEP
4640
ITEM: NUMBER OF ATOMS
1
ITEM: BOX BOUNDS ss ss ss
26.2316 73.6814
26.2316 73.6814
-0.004 20.0492
ITEM: ATOMS id xs ys zs c_msd_abov[4] 
2881 0.522055 0.522055 1.0103 0.140514 
ITEM: TIMESTEP
4720
ITEM: NUMBER OF ATOMS
1
ITEM: BOX BOUNDS ss ss ss
26.454 73.4775
26.454 73.4775
-0.004 20.2655
ITEM: ATOMS id xs ys zs c_msd_abov[4] 
2881 0.521569 0.521569 1.00428 0.0423023 
ITEM: TIMESTEP
4800
ITEM: NUMBER OF ATOMS
1
ITEM: BOX BOUNDS ss ss ss
26.454 73.4775
26.454 73.4775
-0.004 20.2655
ITEM: ATOMS id xs ys zs c_msd_abov[4] 
2881 0.521665 0.521665 1.00018 0.124753 
ITEM: TIMESTEP
4880
ITEM: NUMBER OF ATOMS
1
ITEM: BOX BOUNDS ss ss ss
26.454 73.4775
26.454 73.4775
-0.004 20.2655
ITEM: ATOMS id xs ys zs c_msd_abov[4] 
2881 0.521344 0.521344 0.996287 0.204949 
ITEM: TIMESTEP
4960
ITEM: NUMBER OF ATOMS
1
ITEM: BOX BOUNDS ss ss ss
26.454 73.4775
26.454 73.4775
-0.004 20.2655
ITEM: ATOMS id xs ys zs c_msd_abov[4] 
2881 0.519719 0.519719 0.997352 0.223868 
ITEM: TIMESTEP
5040
ITEM: NUMBER OF ATOMS
1
ITEM: BOX BOUNDS ss ss ss
26.454 73.4775
26.454 73.4775
-0.004 20.2655
ITEM: ATOMS id xs ys zs c_msd_abov[4] 
2881 0.518327 0.518327 0.992575 0.356941 
ITEM: TIMESTEP
5120
ITEM: NUMBER OF ATOMS
1
ITEM: BOX BOUNDS ss ss ss
26.454 73.4775
26.454 73.4775
-0.004 20.2655
ITEM: ATOMS id xs ys zs c_msd_abov[4] 
2881 0.518358 0.518358 0.986871 0.452101 
ITEM: TIMESTEP
5200
ITEM: NUMBER OF ATOMS
1
ITEM: BOX BOUNDS ss ss ss
26.2962 73.6411
26.2962 73.6411
-0.004 19.9464
ITEM: ATOMS id xs ys zs c_msd_abov[4] 
2881 0.519276 0.519276 0.999523 0.48009 
ITEM: TIMESTEP
5280
ITEM: NUMBER OF ATOMS
1
ITEM: BOX BOUNDS ss ss ss
26.2962 73.6411
26.2962 73.6411
-0.004 19.9464
ITEM: ATOMS id xs ys zs c_msd_abov[4] 
2881 0.52054 0.52054 0.994407 0.562628 
ITEM: TIMESTEP
5360
ITEM: NUMBER OF ATOMS
1
ITEM: BOX BOUNDS ss ss ss
26.2962 73.6411
26.2962 73.6411
-0.004 19.9464
ITEM: ATOMS id xs ys zs c_msd_abov[4] 
2881 0.52181 0.52181 0.995223 0.5434 
ITEM: TIMESTEP
5440
ITEM: NUMBER OF ATOMS
1
ITEM: BOX BOUNDS ss ss ss
26.2962 73.6411
26.2962 73.6411
-0.004 19.9464
ITEM: ATOMS id xs ys zs c_msd_abov[4] 
2881 0.522867 0.522867 0.994365 0.567831 
ITEM: TIMESTEP
5520
ITEM: NUMBER OF ATOMS
1
ITEM: BOX BOUNDS ss ss ss
26.2962 73.6411
26.2962 73.6411
-0.004 19.9464
ITEM: ATOMS id xs ys zs c_msd_abov[4] 
2881 0.523756 0.523756 0.982547 0.81045 
ITEM: TIMESTEP
5600
ITEM: NUMBER OF ATOMS
1
ITEM: BOX BOUNDS ss ss ss
26.2962 73.6411
26.2962 73.6411
-0.004 19.9464
ITEM: ATOMS id xs ys zs c_msd_abov[4] 
2881 0.52348 0.52348 0.976962 0.917192 
ITEM: TIMESTEP
5680
ITEM: NUMBER OF ATOMS
1
ITEM: BOX BOUNDS ss ss ss
26.2962 73.6411
26.2962 73.6411
-0.004 19.9464
ITEM: ATOMS id xs ys zs c_msd_abov[4] 
2881 0.521257 0.521257 0.983364 0.779641 
ITEM: TIMESTEP
5760
ITEM: NUMBER OF ATOMS
1
ITEM: BOX BOUNDS ss ss ss
26.2771 73.6573
26.2771 73.6573
-0.004 19.6348
ITEM: ATOMS id xs ys zs c_msd_abov[4] 
2881 0.520286 0.520286 0.997074 0.820607 
ITEM: TIMESTEP
5840
ITEM: NUMBER OF ATOMS
1
ITEM: BOX BOUNDS ss ss ss
26.2771 73.6573
26.2771 73.6573
-0.004 19.6348
ITEM: ATOMS id xs ys zs c_msd_abov[4] 
2881 0.521163 0.521163 0.98464 1.06108 
ITEM: TIMESTEP
5920
ITEM: NUMBER OF ATOMS
1
ITEM: BOX BOUNDS ss ss ss
26.2771 73.6573
26.2771 73.6573
-0.004 19.6348
ITEM: ATOMS id xs ys zs c_msd_abov[4] 
2881 0.52119 0.52119 0.976534 1.22021 
ITEM: TIMESTEP
6000
ITEM: NUMBER OF ATOMS
1
ITEM: BOX BOUNDS ss ss ss
26.2771 73.6573
26.2771 73.6573
-0.004 19.6348
ITEM: ATOMS id xs ys zs c_msd_abov[4] 
2881 0.520918 0.520918 0.971175 1.32585 
ITEM: TIMESTEP
6080
ITEM: NUMBER OF ATOMS
1
ITEM: BOX BOUNDS ss ss ss
26.2771 73.6573
26.2771 73.6573
-0.004 19.6348
ITEM: ATOMS id xs ys zs c_msd_abov[4] 
2881 0.522188 0.522188 0.972966 1.291 
ITEM: TIMESTEP
6160
ITEM: NUMBER OF ATOMS
1
ITEM: BOX BOUNDS ss ss ss
26.2771 73.6573
26.2771 73.6573
-0.004 19.6348
ITEM: ATOMS id xs ys zs c_msd_abov[4] 
2881 0.522213 0.522213 0.979481 1.16321 
ITEM: TIMESTEP
6240
ITEM: NUMBER OF ATOMS
1
ITEM: BOX BOUNDS ss ss ss
26.2771 73.6573
26.2771 73.6573
-0.004 19.6348
ITEM: ATOMS id xs ys zs c_msd_abov[4] 
2881 0.522034 0.522034 0.989755 0.961123 
ITEM: TIMESTEP
6320
ITEM: NUMBER OF ATOMS
1
ITEM: BOX BOUNDS ss ss ss
26.2771 73.6573
26.2771 73.6573
-0.004 19.6348
ITEM: ATOMS id xs ys zs c_msd_abov[4] 
2881 0.522777 0.522777 1.00764 0.615248 
ITEM: TIMESTEP
6400
ITEM: NUMBER OF ATOMS
1
ITEM: BOX BOUNDS ss ss ss
26.2576 73.6682
26.2576 73.6682
-0.004 19.9733
ITEM: ATOMS id xs ys zs c_msd_abov[4] 
2881 0.523663 0.523663 1.00328 0.382268 
ITEM: TIMESTEP
6480
ITEM: NUMBER OF ATOMS
1
ITEM: BOX BOUNDS ss ss ss
26.2576 73.6682
26.2576 73.6682
-0.004 19.9733
ITEM: ATOMS id xs ys zs c_msd_abov[4] 
2881 0.524213 0.524213 1.00873 0.303976 
ITEM: TIMESTEP
6560
ITEM: NUMBER OF ATOMS
1
ITEM: BOX BOUNDS ss ss ss
26.2576 73.6682
26.2576 73.6682
-0.004 19.9733
ITEM: ATOMS id xs ys zs c_msd_abov[4] 
2881 0.523674 0.523674 1.01956 0.144977 
ITEM: TIMESTEP
6640
ITEM: NUMBER OF ATOMS
1
ITEM: BOX BOUNDS ss ss ss
26.2576 73.6682
26.2576 73.6682
-0.004 19.9733
ITEM: ATOMS id xs ys zs c_msd_abov[4] 
2881 0.521688 0.521688 1.0281 0.14095 
ITEM: TIMESTEP
6720
ITEM: NUMBER OF ATOMS
1
ITEM: BOX BOUNDS ss ss ss
26.2576 73.6682
26.2576 73.6682
-0.004 19.9733
ITEM: ATOMS id xs ys zs c_msd_abov[4] 
2881 0.519684 0.519684 1.02294 0.131155 
ITEM: TIMESTEP
6800
ITEM: NUMBER OF ATOMS
1
ITEM: BOX BOUNDS ss ss ss
26.2576 73.6682
26.2576 73.6682
-0.004 19.9733
ITEM: ATOMS id xs ys zs c_msd_abov[4] 
2881 0.519297 0.519297 1.02064 0.151806 
ITEM: TIMESTEP
6880
ITEM: NUMBER OF ATOMS
1
ITEM: BOX BOUNDS ss ss ss
26.2576 73.6682
26.2576 73.6682
-0.004 19.9733
ITEM: ATOMS id xs ys zs c_msd_abov[4] 
2881 0.5207 0.5207 1.02861 0.161356 
ITEM: TIMESTEP
6960
ITEM: NUMBER OF ATOMS
1
ITEM: BOX BOUNDS ss ss ss
26.2576 73.6682
26.2576 73.6682
-0.004 19.9733
ITEM: ATOMS id xs ys zs c_msd_abov[4] 
2881 0.521285 0.521285 1.02654 0.110906 
ITEM: TIMESTEP
7040
ITEM: NUMBER OF ATOMS
1
ITEM: BOX BOUNDS ss ss ss
26.3707 73.5376
26.3707 73.5376
-0.004 20.4228
ITEM: ATOMS id xs ys zs c_msd_abov[4] 
2881 0.520632 0.520632 0.993878 0.126124 
ITEM: TIMESTEP
7120
ITEM: NUMBER OF ATOMS
1
ITEM: BOX BOUNDS ss ss ss
26.3707 73.5376
26.3707 73.5376
-0.004 20.4228
ITEM: ATOMS id xs ys zs c_msd_abov[4] 
2881 0.521879 0.521879 0.991285 0.149187 
ITEM: TIMESTEP
7200
ITEM: NUMBER OF ATOMS
1
ITEM: BOX BOUNDS ss ss ss
26.3707 73.5376
26.3707 73.5376
-0.004 20.4228
ITEM: ATOMS id xs ys zs c_msd_abov[4] 
2881 0.52422 0.52422 0.987298 0.279433 
ITEM: TIMESTEP
7280
ITEM: NUMBER OF ATOMS
1
ITEM: BOX BOUNDS ss ss ss
26.3707 73.5376
26.3707 73.5376
-0.004 20.4228
ITEM: ATOMS id xs ys zs c_msd_abov[4] 
2881 0.523411 0.523411 0.980063 0.39239 
ITEM: TIMESTEP
7360
ITEM: NUMBER OF ATOMS
1
ITEM: BOX BOUNDS ss ss ss
26.3707 73.5376
26.3707 73.5376
-0.004 20.4228
ITEM: ATOMS id xs ys zs c_msd_abov[4] 
2881 0.523666 0.523666 0.973425 0.528018 
ITEM: TIMESTEP
7440
ITEM: NUMBER OF ATOMS
1
ITEM: BOX BOUNDS ss ss ss
26.3566 73.5849
26.3566 73.5849
-0.004 19.8642
ITEM: ATOMS id xs ys zs c_msd_abov[4] 
2881 0.525855 0.525855 0.997898 0.642102 
ITEM: TIMESTEP
7520
ITEM: NUMBER OF ATOMS
1
ITEM: BOX BOUNDS ss ss ss
26.3566 73.5849
26.3566 73.5849
-0.004 19.8642
ITEM: ATOMS id xs ys zs c_msd_abov[4] 
2881 0.525233 0.525233 0.99915 0.601568 
ITEM: TIMESTEP
7600
ITEM: NUMBER OF ATOMS
1
ITEM: BOX BOUNDS ss ss ss
26.3566 73.5849
26.3566 73.5849
-0.004 19.8642
ITEM: ATOMS id xs ys zs c_msd_abov[4] 
2881 0.523031 0.523031 1.00225 0.496087 
ITEM: TIMESTEP
7680
ITEM: NUMBER OF ATOMS
1
ITEM: BOX BOUNDS ss ss ss
26.3566 73.5849
26.3566 73.5849
-0.004 19.8642
ITEM: ATOMS id xs ys zs c_msd_abov[4] 
2881 0.522666 0.522666 1.00899 0.36013 
ITEM: TIMESTEP
7760
ITEM: NUMBER OF ATOMS
1
ITEM: BOX BOUNDS ss ss ss
26.3566 73.5849
26.3566 73.5849
-0.004 19.8642
ITEM: ATOMS id xs ys zs c_msd_abov[4] 
2881 0.520333 0.520333 1.01427 0.257808 
ITEM: TIMESTEP
7840
ITEM: NUMBER OF ATOMS
1
ITEM: BOX BOUNDS ss ss ss
26.2742 73.6848
26.2742 73.6848
-0.004 20.1649
ITEM: ATOMS id xs ys zs c_msd_abov[4] 
2881 0.518065 0.518065 0.999855 0.313421 
ITEM: TIMESTEP
7920
ITEM: NUMBER OF ATOMS
1
ITEM: BOX BOUNDS ss ss ss
26.2742 73.6848
26.2742 73.6848
-0.004 20.1649
ITEM: ATOMS id xs ys zs c_msd_abov[4] 
2881 0.519671 0.519671 0.998009 0.288302 
ITEM: TIMESTEP
8000
ITEM: NUMBER OF ATOMS
1
ITEM: BOX BOUNDS ss ss ss
26.2742 73.6848
26.2742 73.6848
-0.004 20.1649
ITEM: ATOMS id xs ys zs c_msd_abov[4] 
2881 0.52148 0.52148 0.985942 0.512975 
ITEM: TIMESTEP
8080
ITEM: NUMBER OF ATOMS
1
ITEM: BOX BOUNDS ss ss ss
26.2742 73.6848
26.2742 73.6848
-0.004 20.1649
ITEM: ATOMS id xs ys zs c_msd_abov[4] 
2881 0.519851 0.519851 0.974976 0.73944 
ITEM: TIMESTEP
8160
ITEM: NUMBER OF ATOMS
1
ITEM: BOX BOUNDS ss ss ss
26.2742 73.6848
26.2742 73.6848
-0.004 20.1649
ITEM: ATOMS id xs ys zs c_msd_abov[4] 
2881 0.518052 0.518052 0.966597 0.927275 
ITEM: TIMESTEP
8240
ITEM: NUMBER OF ATOMS
1
ITEM: BOX BOUNDS ss ss ss
26.2742 73.6848
26.2742 73.6848
-0.004 20.1649
ITEM: ATOMS id xs ys zs c_msd_abov[4] 
2881 0.517767 0.517767 0.957921 1.10221 
ITEM: TIMESTEP
8320
ITEM: NUMBER OF ATOMS
1
ITEM: BOX BOUNDS ss ss ss
26.3406 73.7343
26.3406 73.7343
-0.004 19.3492
ITEM: ATOMS id xs ys zs c_msd_abov[4] 
2881 0.516468 0.516468 1.00127 1.04736 
ITEM: TIMESTEP
8400
ITEM: NUMBER OF ATOMS
1
ITEM: BOX BOUNDS ss ss ss
26.3406 73.7343
26.3406 73.7343
-0.004 19.3492
ITEM: ATOMS id xs ys zs c_msd_abov[4] 
2881 0.517588 0.517588 1.01289 0.811625 
ITEM: TIMESTEP
8480
ITEM: NUMBER OF ATOMS
1
ITEM: BOX BOUNDS ss ss ss
26.3406 73.7343
26.3406 73.7343
-0.004 19.3492
ITEM: ATOMS id xs ys zs c_msd_abov[4] 
2881 0.518654 0.518654 1.0191 0.6811 
ITEM: TIMESTEP
8560
ITEM: NUMBER OF ATOMS
1
ITEM: BOX BOUNDS ss ss ss
26.3406 73.7343
26.3406 73.7343
-0.004 19.3492
ITEM: ATOMS id xs ys zs c_msd_abov[4] 
2881 0.520749 0.520749 1.03314 0.406673 
ITEM: TIMESTEP
8640
ITEM: NUMBER OF ATOMS
1
ITEM: BOX BOUNDS ss ss ss
26.2665 73.6339
26.2665 73.6339
-0.004 20.059
ITEM: ATOMS id xs ys zs c_msd_abov[4] 
2881 0.525362 0.525362 1.00848 0.287441 
ITEM: TIMESTEP
8720
ITEM: NUMBER OF ATOMS
1
ITEM: BOX BOUNDS ss ss ss
26.2665 73.6339
26.2665 73.6339
-0.004 20.059
ITEM: ATOMS id xs ys zs c_msd_abov[4] 
2881 0.526534 0.526534 1.00419 0.401993 
ITEM: TIMESTEP
8800
ITEM: NUMBER OF ATOMS
1
ITEM: BOX BOUNDS ss ss ss
26.2665 73.6339
26.2665 73.6339
-0.004 20.059
ITEM: ATOMS id xs ys zs c_msd_abov[4] 
2881 0.52531 0.52531 1.00021 0.404024 
ITEM: TIMESTEP
8880
ITEM: NUMBER OF ATOMS
1
ITEM: BOX BOUNDS ss ss ss
26.2665 73.6339
26.2665 73.6339
-0.004 20.059
ITEM: ATOMS id xs ys zs c_msd_abov[4] 
2881 0.52495 0.52495 1.00472 0.317821 
ITEM: TIMESTEP
8960
ITEM: NUMBER OF ATOMS
1
ITEM: BOX BOUNDS ss ss ss
26.2665 73.6339
26.2665 73.6339
-0.004 20.059
ITEM: ATOMS id xs ys zs c_msd_abov[4] 
2881 0.524595 0.524595 0.999697 0.387596 
ITEM: TIMESTEP
9040
ITEM: NUMBER OF ATOMS
1
ITEM: BOX BOUNDS ss ss ss
26.2665 73.6339
26.2665 73.6339
-0.004 20.059
ITEM: ATOMS id xs ys zs c_msd_abov[4] 
2881 0.522403 0.522403 0.990584 0.525246 
ITEM: TIMESTEP
9120
ITEM: NUMBER OF ATOMS
1
ITEM: BOX BOUNDS ss ss ss
26.2665 73.6339
26.2665 73.6339
-0.004 20.059
ITEM: ATOMS id xs ys zs c_msd_abov[4] 
2881 0.521306 0.521306 0.98388 0.65941 
ITEM: TIMESTEP
9200
ITEM: NUMBER OF ATOMS
1
ITEM: BOX BOUNDS ss ss ss
26.2343 73.8034
26.2343 73.8034
-0.004 19.5978
ITEM: ATOMS id xs ys zs c_msd_abov[4] 
2881 0.519913 0.519913 0.992455 0.944505 
ITEM: TIMESTEP
9280
ITEM: NUMBER OF ATOMS
1
ITEM: BOX BOUNDS ss ss ss
26.2343 73.8034
26.2343 73.8034
-0.004 19.5978
ITEM: ATOMS id xs ys zs c_msd_abov[4] 
2881 0.518638 0.518638 0.980896 1.1761 
ITEM: TIMESTEP
9360
ITEM: NUMBER OF ATOMS
1
ITEM: BOX BOUNDS ss ss ss
26.2343 73.8034
26.2343 73.8034
-0.004 19.5978
ITEM: ATOMS id xs ys zs c_msd_abov[4] 
2881 0.519535 0.519535 0.986317 1.06572 
ITEM: TIMESTEP
9440
ITEM: NUMBER OF ATOMS
1
ITEM: BOX BOUNDS ss ss ss
26.2343 73.8034
26.2343 73.8034
-0.004 19.5978
ITEM: ATOMS id xs ys zs c_msd_abov[4] 
2881 0.520992 0.520992 0.990856 0.976543 
ITEM: TIMESTEP
9520
ITEM: NUMBER OF ATOMS
1
ITEM: BOX BOUNDS ss ss ss
26.2343 73.8034
26.2343 73.8034
-0.004 19.5978
ITEM: ATOMS id xs ys zs c_msd_abov[4] 
2881 0.519811 0.519811 1.00418 0.714988 
ITEM: TIMESTEP
9600
ITEM: NUMBER OF ATOMS
1
ITEM: BOX BOUNDS ss ss ss
26.2343 73.8034
26.2343 73.8034
-0.004 19.5978
ITEM: ATOMS id xs ys zs c_msd_abov[4] 
2881 0.520559 0.520559 1.02352 0.335708 
ITEM: TIMESTEP
9680
ITEM: NUMBER OF ATOMS
1
ITEM: BOX BOUNDS ss ss ss
26.2343 73.8034
26.2343 73.8034
-0.004 19.5978
ITEM: ATOMS id xs ys zs c_msd_abov[4] 
2881 0.521919 0.521919 1.0276 0.277235 
ITEM: TIMESTEP
9760
ITEM: NUMBER OF ATOMS
1
ITEM: BOX BOUNDS ss ss ss
26.1414 73.6955
26.1414 73.6955
-0.004 20.061
ITEM: ATOMS id xs ys zs c_msd_abov[4] 
2881 0.523518 0.523518 0.999017 0.360313 
ITEM: TIMESTEP
9840
ITEM: NUMBER OF ATOMS
1
ITEM: BOX BOUNDS ss ss ss
26.1414 73.6955
26.1414 73.6955
-0.004 20.061
ITEM: ATOMS id xs ys zs c_msd_abov[4] 
2881 0.524065 0.524065 1.00715 0.2193 
ITEM: TIMESTEP
9920
ITEM: NUMBER OF ATOMS
1
ITEM: BOX BOUNDS ss ss ss
26.1414 73.6955
26.1414 73.6955
-0.004 20.061
ITEM: ATOMS id xs ys zs c_msd_abov[4] 
2881 0.524764 0.524764 1.01209 0.181359 
ITEM: TIMESTEP
10000
ITEM: NUMBER OF ATOMS
1
ITEM: BOX BOUNDS ss ss ss
26.1414 73.6955
26.1414 73.6955
-0.004 20.061
ITEM: ATOMS id xs ys zs c_msd_abov[4] 
2881 0.52186 0.52186 1.01203 0.0992285 
ITEM: TIMESTEP
10080
ITEM: NUMBER OF ATOMS
1
ITEM: BOX BOUNDS ss ss ss
26.1414 73.6955
26.1414 73.6955
-0.004 20.061
ITEM: ATOMS id xs ys zs c_msd_abov[4] 
2881 0.519439 0.519439 1.01325 0.211886 
ITEM: TIMESTEP
10160
ITEM: NUMBER OF ATOMS
1
ITEM: BOX BOUNDS ss ss ss
26.1414 73.6955
26.1414 73.6955
-0.004 20.061
ITEM: ATOMS id xs ys zs c_msd_abov[4] 
2881 0.520563 0.520563 1.01651 0.125436 
ITEM: TIMESTEP
10240
ITEM: NUMBER OF ATOMS
1
ITEM: BOX BOUNDS ss ss ss
26.1165 73.7107
26.1165 73.7107
-0.004 20.4021
ITEM: ATOMS id xs ys zs c_msd_abov[4] 
2881 0.521994 0.521994 0.999815 0.0351214 
ITEM: TIMESTEP
10320
ITEM: NUMBER OF ATOMS
1
ITEM: BOX BOUNDS ss ss ss
26.1165 73.7107
26.1165 73.7107
-0.004 20.4021
ITEM: ATOMS id xs ys zs c_msd_abov[4] 
2881 0.522319 0.522319 1.00017 0.0174118 
ITEM: TIMESTEP
10400
ITEM: NUMBER OF ATOMS
1
ITEM: BOX BOUNDS ss ss ss
26.1165 73.7107
26.1165 73.7107
-0.004 20.4021
ITEM: ATOMS id xs ys zs c_msd_abov[4] 
2881 0.522997 0.522997 0.995424 0.0913411 
ITEM: TIMESTEP
10480
ITEM: NUMBER OF ATOMS
1
ITEM: BOX BOUNDS ss ss ss
26.1165 73.7107
26.1165 73.7107
-0.004 20.4021
ITEM: ATOMS id xs ys zs c_msd_abov[4] 
2881 0.522513 0.522513 0.99086 0.178426 
ITEM: TIMESTEP
10560
ITEM: NUMBER OF ATOMS
1
ITEM: BOX BOUNDS ss ss ss
26.1165 73.7107
26.1165 73.7107
-0.004 20.4021
ITEM: ATOMS id xs ys zs c_msd_abov[4] 
2881 0.520982 0.520982 0.988102 0.256283 
ITEM: TIMESTEP
10640
ITEM: NUMBER OF ATOMS
1
ITEM: BOX BOUNDS ss ss ss
26.1165 73.7107
26.1165 73.7107
-0.004 20.4021
ITEM: ATOMS id xs ys zs c_msd_abov[4] 
2881 0.522778 0.522778 0.985177 0.29494 
ITEM: TIMESTEP
10720
ITEM: NUMBER OF ATOMS
1
ITEM: BOX BOUNDS ss ss ss
26.0003 74.1396
26.0003 74.1396
-0.004 20.1002
ITEM: ATOMS id xs ys zs c_msd_abov[4] 
2881 0.521151 0.521151 1.00047 0.319537 
ITEM: TIMESTEP
10800
ITEM: NUMBER OF ATOMS
1
ITEM: BOX BOUNDS ss ss ss
26.0003 74.1396
26.0003 74.1396
-0.004 20.1002
ITEM: ATOMS id xs ys zs c_msd_abov[4] 
2881 0.519706 0.519706 0.998384 0.329714 
ITEM: TIMESTEP
10880
ITEM: NUMBER OF ATOMS
1
ITEM: BOX BOUNDS ss ss ss
26.0003 74.1396
26.0003 74.1396
-0.004 20.1002
ITEM: ATOMS id xs ys zs c_msd_abov[4] 
2881 0.519446 0.519446 0.986062 0.574784 
ITEM: TIMESTEP
10960
ITEM: NUMBER OF ATOMS
1
ITEM: BOX BOUNDS ss ss ss
26.0003 74.1396
26.0003 74.1396
-0.004 20.1002
ITEM: ATOMS id xs ys zs c_msd_abov[4] 
2881 0.522423 0.522423 0.977521 0.7811 
ITEM: TIMESTEP
11040
ITEM: NUMBER OF ATOMS
1
ITEM: BOX BOUNDS ss ss ss
26.0003 74.1396
26.0003 74.1396
-0.004 20.1002
ITEM: ATOMS id xs ys zs c_msd_abov[4] 
2881 0.523775 0.523775 0.978013 0.804196 
ITEM: TIMESTEP
11120
ITEM: NUMBER OF ATOMS
1
ITEM: BOX BOUNDS ss ss ss
26.1059 73.6616
26.1059 73.6616
-0.004 19.7018
ITEM: ATOMS id xs ys zs c_msd_abov[4] 
2881 0.527049 0.527049 1.00047 0.731427 
ITEM: TIMESTEP
11200
ITEM: NUMBER OF ATOMS
1
ITEM: BOX BOUNDS ss ss ss
26.1059 73.6616
26.1059 73.6616
-0.004 19.7018
ITEM: ATOMS id xs ys zs c_msd_abov[4] 
2881 0.525631 0.525631 1.00248 0.664528 
ITEM: TIMESTEP
11280
ITEM: NUMBER OF ATOMS
1
ITEM: BOX BOUNDS ss ss ss
26.1059 73.6616
26.1059 73.6616
-0.004 19.7018
ITEM: ATOMS id xs ys zs c_msd_abov[4] 
2881 0.524536 0.524536 1.00313 0.637343 
ITEM: TIMESTEP
11360
ITEM: NUMBER OF ATOMS
1
ITEM: BOX BOUNDS ss ss ss
26.1059 73.6616
26.1059 73.6616
-0.004 19.7018
ITEM: ATOMS id xs ys zs c_msd_abov[4] 
2881 0.524795 0.524795 1.00014 0.6982 
ITEM: TIMESTEP
11440
ITEM: NUMBER OF ATOMS
1
ITEM: BOX BOUNDS ss ss ss
26.2084 73.6815
26.2084 73.6815
-0.004 19.6863
ITEM: ATOMS id xs ys zs c_msd_abov[4] 
2881 0.52237 0.52237 0.999237 0.7234 
ITEM: TIMESTEP
11520
ITEM: NUMBER OF ATOMS
1
ITEM: BOX BOUNDS ss ss ss
26.2084 73.6815
26.2084 73.6815
-0.004 19.6863
ITEM: ATOMS id xs ys zs c_msd_abov[4] 
2881 0.519591 0.519591 1.00303 0.666541 
ITEM: TIMESTEP
11600
ITEM: NUMBER OF ATOMS
1
ITEM: BOX BOUNDS ss ss ss
26.2084 73.6815
26.2084 73.6815
-0.004 19.6863
ITEM: ATOMS id xs ys zs c_msd_abov[4] 
2881 0.520603 0.520603 1.00763 0.564258 
ITEM: TIMESTEP
11680
ITEM: NUMBER OF ATOMS
1
ITEM: BOX BOUNDS ss ss ss
26.2084 73.6815
26.2084 73.6815
-0.004 19.6863
ITEM: ATOMS id xs ys zs c_msd_abov[4] 
2881 0.52133 0.52133 1.01064 0.49973 
ITEM: TIMESTEP
11760
ITEM: NUMBER OF ATOMS
1
ITEM: BOX BOUNDS ss ss ss
26.2084 73.6815
26.2084 73.6815
-0.004 19.6863
ITEM: ATOMS id xs ys zs c_msd_abov[4] 
2881 0.517816 0.517816 1.01627 0.47487 
ITEM: TIMESTEP
11840
ITEM: NUMBER OF ATOMS
1
ITEM: BOX BOUNDS ss ss ss
26.2084 73.6815
26.2084 73.6815
-0.004 19.6863
ITEM: ATOMS id xs ys zs c_msd_abov[4] 
2881 0.51676 0.51676 1.01426 0.549377 
ITEM: TIMESTEP
11920
ITEM: NUMBER OF ATOMS
1
ITEM: BOX BOUNDS ss ss ss
26.2084 73.6815
26.2084 73.6815
-0.004 19.6863
ITEM: ATOMS id xs ys zs c_msd_abov[4] 
2881 0.520419 0.520419 1.00765 0.565993 
ITEM: TIMESTEP
12000
ITEM: NUMBER OF ATOMS
1
ITEM: BOX BOUNDS ss ss ss
26.2084 73.6815
26.2084 73.6815
-0.004 19.6863
ITEM: ATOMS id xs ys zs c_msd_abov[4] 
2881 0.521851 0.521851 1.00183 0.67169 
ITEM: TIMESTEP
12080
ITEM: NUMBER OF ATOMS
1
ITEM: BOX BOUNDS ss ss ss
26.2084 73.6815
26.2084 73.6815
-0.004 19.6863
ITEM: ATOMS id xs ys zs c_msd_abov[4] 
2881 0.520744 0.520744 1.00031 0.705948 
ITEM: TIMESTEP
12160
ITEM: NUMBER OF ATOMS
1
ITEM: BOX BOUNDS ss ss ss
26.2084 73.6815