ITEM: TIMESTEP
0
ITEM: NUMBER OF ATOMS
1
ITEM: BOX BOUNDS ss ss ss
26.5002 73.4304
26.5002 73.4304
-0.004 20.398
ITEM: ATOMS id xs ys zs c_msd_abov[4] 
2881 0.521728 0.521728 0.999804 0 
ITEM: TIMESTEP
80
ITEM: NUMBER OF ATOMS
1
ITEM: BOX BOUNDS ss ss ss
26.5002 73.4304
26.5002 73.4304
-0.004 20.398
ITEM: ATOMS id xs ys zs c_msd_abov[4] 
2881 0.521728 0.521728 0.98685 0.264283 
ITEM: TIMESTEP
160
ITEM: NUMBER OF ATOMS
1
ITEM: BOX BOUNDS ss ss ss
26.5002 73.4304
26.5002 73.4304
-0.004 20.398
ITEM: ATOMS id xs ys zs c_msd_abov[4] 
2881 0.521728 0.521728 0.970175 0.604486 
ITEM: TIMESTEP
240
ITEM: NUMBER OF ATOMS
1
ITEM: BOX BOUNDS ss ss ss
26.5002 73.4304
26.5002 73.4304
-0.004 20.398
ITEM: ATOMS id xs ys zs c_msd_abov[4] 
2881 0.521728 0.521728 0.969454 0.6192 
ITEM: TIMESTEP
320
ITEM: NUMBER OF ATOMS
1
ITEM: BOX BOUNDS ss ss ss
26.4785 73.4521
26.4785 73.4521
-0.004 19.5867
ITEM: ATOMS id xs ys zs c_msd_abov[4] 
2881 0.521708 0.521708 0.998381 0.838974 
ITEM: TIMESTEP
400
ITEM: NUMBER OF ATOMS
1
ITEM: BOX BOUNDS ss ss ss
26.4785 73.4521
26.4785 73.4521
-0.004 19.5867
ITEM: ATOMS id xs ys zs c_msd_abov[4] 
2881 0.521709 0.521709 0.987057 1.06081 
ITEM: TIMESTEP
480
ITEM: NUMBER OF ATOMS
1
ITEM: BOX BOUNDS ss ss ss
26.4785 73.4521
26.4785 73.4521
-0.004 19.5867
ITEM: ATOMS id xs ys zs c_msd_abov[4] 
2881 0.521712 0.521712 0.992538 0.953452 
ITEM: TIMESTEP
560
ITEM: NUMBER OF ATOMS
1
ITEM: BOX BOUNDS ss ss ss
26.4785 73.4521
26.4785 73.4521
-0.004 19.5867
ITEM: ATOMS id xs ys zs c_msd_abov[4] 
2881 0.521721 0.521721 0.993127 0.941903 
ITEM: TIMESTEP
640
ITEM: NUMBER OF ATOMS
1
ITEM: BOX BOUNDS ss ss ss
26.4785 73.4521
26.4785 73.4521
-0.004 19.5867
ITEM: ATOMS id xs ys zs c_msd_abov[4] 
2881 0.521741 0.521741 0.993355 0.937446 
ITEM: TIMESTEP
720
ITEM: NUMBER OF ATOMS
1
ITEM: BOX BOUNDS ss ss ss
26.4785 73.4521
26.4785 73.4521
-0.004 19.5867
ITEM: ATOMS id xs ys zs c_msd_abov[4] 
2881 0.521746 0.521746 1.0015 0.77794 
ITEM: TIMESTEP
800
ITEM: NUMBER OF ATOMS
1
ITEM: BOX BOUNDS ss ss ss
26.4785 73.4521
26.4785 73.4521
-0.004 19.5867
ITEM: ATOMS id xs ys zs c_msd_abov[4] 
2881 0.521713 0.521713 1.00362 0.736332 
ITEM: TIMESTEP
880
ITEM: NUMBER OF ATOMS
1
ITEM: BOX BOUNDS ss ss ss
26.4785 73.4521
26.4785 73.4521
-0.004 19.5867
ITEM: ATOMS id xs ys zs c_msd_abov[4] 
2881 0.521585 0.521585 1.00679 0.674326 
ITEM: TIMESTEP
960
ITEM: NUMBER OF ATOMS
1
ITEM: BOX BOUNDS ss ss ss
26.4785 73.4521
26.4785 73.4521
-0.004 19.5867
ITEM: ATOMS id xs ys zs c_msd_abov[4] 
2881 0.521421 0.521421 1.01275 0.557873 
ITEM: TIMESTEP
1040
ITEM: NUMBER OF ATOMS
1
ITEM: BOX BOUNDS ss ss ss
26.4785 73.4521
26.4785 73.4521
-0.004 19.5867
ITEM: ATOMS id xs ys zs c_msd_abov[4] 
2881 0.521305 0.521305 1.01391 0.535329 
ITEM: TIMESTEP
1120
ITEM: NUMBER OF ATOMS
1
ITEM: BOX BOUNDS ss ss ss
26.4785 73.4521
26.4785 73.4521
-0.004 19.5867
ITEM: ATOMS id xs ys zs c_msd_abov[4] 
2881 0.521284 0.521284 1.02516 0.315704 
ITEM: TIMESTEP
1200
ITEM: NUMBER OF ATOMS
1
ITEM: BOX BOUNDS ss ss ss
26.4785 73.4521
26.4785 73.4521
-0.004 19.5867
ITEM: ATOMS id xs ys zs c_msd_abov[4] 
2881 0.5213 0.5213 1.0358 0.10933 
ITEM: TIMESTEP
1280
ITEM: NUMBER OF ATOMS
1
ITEM: BOX BOUNDS ss ss ss
26.4204 73.5118
26.4204 73.5118
-0.004 20.2661
ITEM: ATOMS id xs ys zs c_msd_abov[4] 
2881 0.521241 0.521241 0.99783 0.173853 
ITEM: TIMESTEP
1360
ITEM: NUMBER OF ATOMS
1
ITEM: BOX BOUNDS ss ss ss
26.4204 73.5118
26.4204 73.5118
-0.004 20.2661
ITEM: ATOMS id xs ys zs c_msd_abov[4] 
2881 0.521315 0.521315 1.00517 0.0314369 
ITEM: TIMESTEP
1440
ITEM: NUMBER OF ATOMS
1
ITEM: BOX BOUNDS ss ss ss
26.4204 73.5118
26.4204 73.5118
-0.004 20.2661
ITEM: ATOMS id xs ys zs c_msd_abov[4] 
2881 0.521329 0.521329 1.0174 0.22581 
ITEM: TIMESTEP
1520
ITEM: NUMBER OF ATOMS
1
ITEM: BOX BOUNDS ss ss ss
26.4204 73.5118
26.4204 73.5118
-0.004 20.2661
ITEM: ATOMS id xs ys zs c_msd_abov[4] 
2881 0.521278 0.521278 1.01498 0.177488 
ITEM: TIMESTEP
1600
ITEM: NUMBER OF ATOMS
1
ITEM: BOX BOUNDS ss ss ss
26.4204 73.5118
26.4204 73.5118
-0.004 20.2661
ITEM: ATOMS id xs ys zs c_msd_abov[4] 
2881 0.521364 0.521364 1.01608 0.198975 
ITEM: TIMESTEP
1680
ITEM: NUMBER OF ATOMS
1
ITEM: BOX BOUNDS ss ss ss
26.4204 73.5118
26.4204 73.5118
-0.004 20.2661
ITEM: ATOMS id xs ys zs c_msd_abov[4] 
2881 0.521592 0.521592 1.01919 0.261198 
ITEM: TIMESTEP
1760
ITEM: NUMBER OF ATOMS
1
ITEM: BOX BOUNDS ss ss ss
26.4204 73.5118
26.4204 73.5118
-0.004 20.2661
ITEM: ATOMS id xs ys zs c_msd_abov[4] 
2881 0.521865 0.521865 1.00714 0.0227045 
ITEM: TIMESTEP
1840
ITEM: NUMBER OF ATOMS
1
ITEM: BOX BOUNDS ss ss ss
26.4204 73.5118
26.4204 73.5118
-0.004 20.2661
ITEM: ATOMS id xs ys zs c_msd_abov[4] 
2881 0.522319 0.522319 0.998053 0.173399 
ITEM: TIMESTEP
1920
ITEM: NUMBER OF ATOMS
1
ITEM: BOX BOUNDS ss ss ss
26.4204 73.5118
26.4204 73.5118
-0.004 20.2661
ITEM: ATOMS id xs ys zs c_msd_abov[4] 
2881 0.522522 0.522522 0.998479 0.169303 
ITEM: TIMESTEP
2000
ITEM: NUMBER OF ATOMS
1
ITEM: BOX BOUNDS ss ss ss
26.4136 73.511
26.4136 73.511
-0.004 20.1704
ITEM: ATOMS id xs ys zs c_msd_abov[4] 
2881 0.522481 0.522481 0.99296 0.369173 
ITEM: TIMESTEP
2080
ITEM: NUMBER OF ATOMS
1
ITEM: BOX BOUNDS ss ss ss
26.4136 73.511
26.4136 73.511
-0.004 20.1704
ITEM: ATOMS id xs ys zs c_msd_abov[4] 
2881 0.522208 0.522208 0.982012 0.587404 
ITEM: TIMESTEP
2160
ITEM: NUMBER OF ATOMS
1
ITEM: BOX BOUNDS ss ss ss
26.4136 73.511
26.4136 73.511
-0.004 20.1704
ITEM: ATOMS id xs ys zs c_msd_abov[4] 
2881 0.521937 0.521937 0.977726 0.673116 
ITEM: TIMESTEP
2240
ITEM: NUMBER OF ATOMS
1
ITEM: BOX BOUNDS ss ss ss
26.4136 73.511
26.4136 73.511
-0.004 20.1704
ITEM: ATOMS id xs ys zs c_msd_abov[4] 
2881 0.521445 0.521445 0.967775 0.873899 
ITEM: TIMESTEP
2320
ITEM: NUMBER OF ATOMS
1
ITEM: BOX BOUNDS ss ss ss
26.4136 73.511
26.4136 73.511
-0.004 20.1704
ITEM: ATOMS id xs ys zs c_msd_abov[4] 
2881 0.52102 0.52102 0.966221 0.906233 
ITEM: TIMESTEP
2400
ITEM: NUMBER OF ATOMS
1
ITEM: BOX BOUNDS ss ss ss
26.4136 73.511
26.4136 73.511
-0.004 20.1704
ITEM: ATOMS id xs ys zs c_msd_abov[4] 
2881 0.52154 0.52154 0.97133 0.802073 
ITEM: TIMESTEP
2480
ITEM: NUMBER OF ATOMS
1
ITEM: BOX BOUNDS ss ss ss
26.4136 73.511
26.4136 73.511
-0.004 20.1704
ITEM: ATOMS id xs ys zs c_msd_abov[4] 
2881 0.522094 0.522094 0.962593 0.978581 
ITEM: TIMESTEP
2560
ITEM: NUMBER OF ATOMS
1
ITEM: BOX BOUNDS ss ss ss
26.4136 73.511
26.4136 73.511
-0.004 20.1704
ITEM: ATOMS id xs ys zs c_msd_abov[4] 
2881 0.522557 0.522557 0.954627 1.14034 
ITEM: TIMESTEP
2640
ITEM: NUMBER OF ATOMS
1
ITEM: BOX BOUNDS ss ss ss
26.4136 73.511
26.4136 73.511
-0.004 20.1704
ITEM: ATOMS id xs ys zs c_msd_abov[4] 
2881 0.523204 0.523204 0.960535 1.02459 
ITEM: TIMESTEP
2720
ITEM: NUMBER OF ATOMS
1
ITEM: BOX BOUNDS ss ss ss
26.4136 73.511
26.4136 73.511
-0.004 20.1704
ITEM: ATOMS id xs ys zs c_msd_abov[4] 
2881 0.52316 0.52316 0.962365 0.987552 
ITEM: TIMESTEP
2800
ITEM: NUMBER OF ATOMS
1
ITEM: BOX BOUNDS ss ss ss
26.4136 73.511
26.4136 73.511
-0.004 20.1704
ITEM: ATOMS id xs ys zs c_msd_abov[4] 
2881 0.522154 0.522154 0.964405 0.942151 
ITEM: TIMESTEP
2880
ITEM: NUMBER OF ATOMS
1
ITEM: BOX BOUNDS ss ss ss
26.4136 73.511
26.4136 73.511
-0.004 20.1704
ITEM: ATOMS id xs ys zs c_msd_abov[4] 
2881 0.521273 0.521273 0.968177 0.866093 
ITEM: TIMESTEP
2960
ITEM: NUMBER OF ATOMS
1
ITEM: BOX BOUNDS ss ss ss
26.4136 73.511
26.4136 73.511
-0.004 20.1704
ITEM: ATOMS id xs ys zs c_msd_abov[4] 
2881 0.520623 0.520623 0.966079 0.910832 
ITEM: TIMESTEP
3040
ITEM: NUMBER OF ATOMS
1
ITEM: BOX BOUNDS ss ss ss
26.4136 73.511
26.4136 73.511
-0.004 20.1704
ITEM: ATOMS id xs ys zs c_msd_abov[4] 
2881 0.52065 0.52065 0.971865 0.794379 
ITEM: TIMESTEP
3120
ITEM: NUMBER OF ATOMS
1
ITEM: BOX BOUNDS ss ss ss
26.4136 73.511
26.4136 73.511
-0.004 20.1704
ITEM: ATOMS id xs ys zs c_msd_abov[4] 
2881 0.520956 0.520956 0.981716 0.594617 
ITEM: TIMESTEP
3200
ITEM: NUMBER OF ATOMS
1
ITEM: BOX BOUNDS ss ss ss
26.4136 73.511
26.4136 73.511
-0.004 20.1704
ITEM: ATOMS id xs ys zs c_msd_abov[4] 
2881 0.520468 0.520468 0.980302 0.626516 
ITEM: TIMESTEP
3280
ITEM: NUMBER OF ATOMS
1
ITEM: BOX BOUNDS ss ss ss
26.401 73.5287
26.401 73.5287
-0.004 19.7607
ITEM: ATOMS id xs ys zs c_msd_abov[4] 
2881 0.519333 0.519333 1.0035 0.584792 
ITEM: TIMESTEP
3360
ITEM: NUMBER OF ATOMS
1
ITEM: BOX BOUNDS ss ss ss
26.401 73.5287
26.401 73.5287
-0.004 19.7607
ITEM: ATOMS id xs ys zs c_msd_abov[4] 
2881 0.519713 0.519713 1.01796 0.306711 
ITEM: TIMESTEP
3440
ITEM: NUMBER OF ATOMS
1
ITEM: BOX BOUNDS ss ss ss
26.401 73.5287
26.401 73.5287
-0.004 19.7607
ITEM: ATOMS id xs ys zs c_msd_abov[4] 
2881 0.520749 0.520749 1.02266 0.19491 
ITEM: TIMESTEP
3520
ITEM: NUMBER OF ATOMS
1
ITEM: BOX BOUNDS ss ss ss
26.401 73.5287
26.401 73.5287
-0.004 19.7607
ITEM: ATOMS id xs ys zs c_msd_abov[4] 
2881 0.521489 0.521489 1.02605 0.118852 
ITEM: TIMESTEP
3600
ITEM: NUMBER OF ATOMS
1
ITEM: BOX BOUNDS ss ss ss
26.401 73.5287
26.401 73.5287
-0.004 19.7607
ITEM: ATOMS id xs ys zs c_msd_abov[4] 
2881 0.521581 0.521581 1.02505 0.138361 
ITEM: TIMESTEP
3680
ITEM: NUMBER OF ATOMS
1
ITEM: BOX BOUNDS ss ss ss
26.401 73.5287
26.401 73.5287
-0.004 19.7607
ITEM: ATOMS id xs ys zs c_msd_abov[4] 
2881 0.521226 0.521226 1.01279 0.38157 
ITEM: TIMESTEP
3760
ITEM: NUMBER OF ATOMS
1
ITEM: BOX BOUNDS ss ss ss
26.401 73.5287
26.401 73.5287
-0.004 19.7607
ITEM: ATOMS id xs ys zs c_msd_abov[4] 
2881 0.520446 0.520446 1.01072 0.428962 
ITEM: TIMESTEP
3840
ITEM: NUMBER OF ATOMS
1
ITEM: BOX BOUNDS ss ss ss
26.2263 73.6859
26.2263 73.6859
-0.004 20.0469
ITEM: ATOMS id xs ys zs c_msd_abov[4] 
2881 0.520504 0.520504 1.0025 0.307215 
ITEM: TIMESTEP
3920
ITEM: NUMBER OF ATOMS
1
ITEM: BOX BOUNDS ss ss ss
26.2263 73.6859
26.2263 73.6859
-0.004 20.0469
ITEM: ATOMS id xs ys zs c_msd_abov[4] 
2881 0.521322 0.521322 1.00284 0.29122 
ITEM: TIMESTEP
4000
ITEM: NUMBER OF ATOMS
1
ITEM: BOX BOUNDS ss ss ss
26.2263 73.6859
26.2263 73.6859
-0.004 20.0469
ITEM: ATOMS id xs ys zs c_msd_abov[4] 
2881 0.522498 0.522498 1.00067 0.338095 
ITEM: TIMESTEP
4080
ITEM: NUMBER OF ATOMS
1
ITEM: BOX BOUNDS ss ss ss
26.2263 73.6859
26.2263 73.6859
-0.004 20.0469
ITEM: ATOMS id xs ys zs c_msd_abov[4] 
2881 0.523458 0.523458 0.99466 0.469608 
ITEM: TIMESTEP
4160
ITEM: NUMBER OF ATOMS
1
ITEM: BOX BOUNDS ss ss ss
26.2263 73.6859
26.2263 73.6859
-0.004 20.0469
ITEM: ATOMS id xs ys zs c_msd_abov[4] 
2881 0.523585 0.523585 0.990823 0.546319 
ITEM: TIMESTEP
4240
ITEM: NUMBER OF ATOMS
1
ITEM: BOX BOUNDS ss ss ss
26.2263 73.6859
26.2263 73.6859
-0.004 20.0469
ITEM: ATOMS id xs ys zs c_msd_abov[4] 
2881 0.523748 0.523748 0.993984 0.487916 
ITEM: TIMESTEP
4320
ITEM: NUMBER OF ATOMS
1
ITEM: BOX BOUNDS ss ss ss
26.2263 73.6859
26.2263 73.6859
-0.004 20.0469
ITEM: ATOMS id xs ys zs c_msd_abov[4] 
2881 0.524213 0.524213 0.996255 0.455168 
ITEM: TIMESTEP
4400
ITEM: NUMBER OF ATOMS
1
ITEM: BOX BOUNDS ss ss ss
26.2263 73.6859
26.2263 73.6859
-0.004 20.0469
ITEM: ATOMS id xs ys zs c_msd_abov[4] 
2881 0.524523 0.524523 0.998334 0.425695 
ITEM: TIMESTEP
4480
ITEM: NUMBER OF ATOMS
1
ITEM: BOX BOUNDS ss ss ss
26.2263 73.6859
26.2263 73.6859
-0.004 20.0469
ITEM: ATOMS id xs ys zs c_msd_abov[4] 
2881 0.524254 0.524254 1.00131 0.364462 
ITEM: TIMESTEP
4560
ITEM: NUMBER OF ATOMS
1
ITEM: BOX BOUNDS ss ss ss
26.2263 73.6859
26.2263 73.6859
-0.004 20.0469
ITEM: ATOMS id xs ys zs c_msd_abov[4] 
2881 0.523258 0.523258 1.00415 0.284391 
ITEM: TIMESTEP
4640
ITEM: NUMBER OF ATOMS
1
ITEM: BOX BOUNDS ss ss ss
26.4531 73.4797
26.4531 73.4797
-0.004 20.2406
ITEM: ATOMS id xs ys zs c_msd_abov[4] 
2881 0.522093 0.522093 1.00108 0.134623 
ITEM: TIMESTEP
4720
ITEM: NUMBER OF ATOMS
1
ITEM: BOX BOUNDS ss ss ss
26.4531 73.4797
26.4531 73.4797
-0.004 20.2406
ITEM: ATOMS id xs ys zs c_msd_abov[4] 
2881 0.521589 0.521589 1.00605 0.0313693 
ITEM: TIMESTEP
4800
ITEM: NUMBER OF ATOMS
1
ITEM: BOX BOUNDS ss ss ss
26.4531 73.4797
26.4531 73.4797
-0.004 20.2406
ITEM: ATOMS id xs ys zs c_msd_abov[4] 
2881 0.521712 0.521712 1.00183 0.116487 
ITEM: TIMESTEP
4880
ITEM: NUMBER OF ATOMS
1
ITEM: BOX BOUNDS ss ss ss
26.4531 73.4797
26.4531 73.4797
-0.004 20.2406
ITEM: ATOMS id xs ys zs c_msd_abov[4] 
2881 0.521403 0.521403 0.997912 0.196437 
ITEM: TIMESTEP
4960
ITEM: NUMBER OF ATOMS
1
ITEM: BOX BOUNDS ss ss ss
26.4531 73.4797
26.4531 73.4797
-0.004 20.2406
ITEM: ATOMS id xs ys zs c_msd_abov[4] 
2881 0.519676 0.519676 0.998961 0.218732 
ITEM: TIMESTEP
5040
ITEM: NUMBER OF ATOMS
1
ITEM: BOX BOUNDS ss ss ss
26.4531 73.4797
26.4531 73.4797
-0.004 20.2406
ITEM: ATOMS id xs ys zs c_msd_abov[4] 
2881 0.518163 0.518163 0.993943 0.36097 
ITEM: TIMESTEP
5120
ITEM: NUMBER OF ATOMS
1
ITEM: BOX BOUNDS ss ss ss
26.4531 73.4797
26.4531 73.4797
-0.004 20.2406
ITEM: ATOMS id xs ys zs c_msd_abov[4] 
2881 0.518146 0.518146 0.988571 0.450203 
ITEM: TIMESTEP
5200
ITEM: NUMBER OF ATOMS
1
ITEM: BOX BOUNDS ss ss ss
26.4531 73.4797
26.4531 73.4797
-0.004 20.2406
ITEM: ATOMS id xs ys zs c_msd_abov[4] 
2881 0.519301 0.519301 0.985743 0.469069 
ITEM: TIMESTEP
5280
ITEM: NUMBER OF ATOMS
1
ITEM: BOX BOUNDS ss ss ss
26.3564 73.6237
26.3564 73.6237
-0.004 19.8972
ITEM: ATOMS id xs ys zs c_msd_abov[4] 
2881 0.520046 0.520046 0.997174 0.557137 
ITEM: TIMESTEP
5360
ITEM: NUMBER OF ATOMS
1
ITEM: BOX BOUNDS ss ss ss
26.3564 73.6237
26.3564 73.6237
-0.004 19.8972
ITEM: ATOMS id xs ys zs c_msd_abov[4] 
2881 0.521391 0.521391 0.998146 0.534216 
ITEM: TIMESTEP
5440
ITEM: NUMBER OF ATOMS
1
ITEM: BOX BOUNDS ss ss ss
26.3564 73.6237
26.3564 73.6237
-0.004 19.8972
ITEM: ATOMS id xs ys zs c_msd_abov[4] 
2881 0.522507 0.522507 0.997407 0.557022 
ITEM: TIMESTEP
5520
ITEM: NUMBER OF ATOMS
1
ITEM: BOX BOUNDS ss ss ss
26.3564 73.6237
26.3564 73.6237
-0.004 19.8972
ITEM: ATOMS id xs ys zs c_msd_abov[4] 
2881 0.523455 0.523455 0.984782 0.815669 
ITEM: TIMESTEP
5600
ITEM: NUMBER OF ATOMS
1
ITEM: BOX BOUNDS ss ss ss
26.3564 73.6237
26.3564 73.6237
-0.004 19.8972
ITEM: ATOMS id xs ys zs c_msd_abov[4] 
2881 0.523208 0.523208 0.978585 0.934214 
ITEM: TIMESTEP
5680
ITEM: NUMBER OF ATOMS
1
ITEM: BOX BOUNDS ss ss ss
26.3564 73.6237
26.3564 73.6237
-0.004 19.8972
ITEM: ATOMS id xs ys zs c_msd_abov[4] 
2881 0.520829 0.520829 0.985266 0.790187 
ITEM: TIMESTEP
5760
ITEM: NUMBER OF ATOMS
1
ITEM: BOX BOUNDS ss ss ss
26.2602 73.6741
26.2602 73.6741
-0.004 19.6193
ITEM: ATOMS id xs ys zs c_msd_abov[4] 
2881 0.520128 0.520128 0.997601 0.826709 
ITEM: TIMESTEP
5840
ITEM: NUMBER OF ATOMS
1
ITEM: BOX BOUNDS ss ss ss
26.2602 73.6741
26.2602 73.6741
-0.004 19.6193
ITEM: ATOMS id xs ys zs c_msd_abov[4] 
2881 0.521038 0.521038 0.985244 1.06468 
ITEM: TIMESTEP
5920
ITEM: NUMBER OF ATOMS
1
ITEM: BOX BOUNDS ss ss ss
26.2602 73.6741
26.2602 73.6741
-0.004 19.6193
ITEM: ATOMS id xs ys zs c_msd_abov[4] 
2881 0.521097 0.521097 0.977075 1.22485 
ITEM: TIMESTEP
6000
ITEM: NUMBER OF ATOMS
1
ITEM: BOX BOUNDS ss ss ss
26.2602 73.6741
26.2602 73.6741
-0.004 19.6193
ITEM: ATOMS id xs ys zs c_msd_abov[4] 
2881 0.520816 0.520816 0.971277 1.3391 
ITEM: TIMESTEP
6080
ITEM: NUMBER OF ATOMS
1
ITEM: BOX BOUNDS ss ss ss
26.2602 73.6741
26.2602 73.6741
-0.004 19.6193
ITEM: ATOMS id xs ys zs c_msd_abov[4] 
2881 0.522217 0.522217 0.972772 1.31 
ITEM: TIMESTEP
6160
ITEM: NUMBER OF ATOMS
1
ITEM: BOX BOUNDS ss ss ss
26.2602 73.6741
26.2602 73.6741
-0.004 19.6193
ITEM: ATOMS id xs ys zs c_msd_abov[4] 
2881 0.522208 0.522208 0.979532 1.17743 
ITEM: TIMESTEP
6240
ITEM: NUMBER OF ATOMS
1
ITEM: BOX BOUNDS ss ss ss
26.2602 73.6741
26.2602 73.6741
-0.004 19.6193
ITEM: ATOMS id xs ys zs c_msd_abov[4] 
2881 0.52198 0.52198 0.989863 0.97426 
ITEM: TIMESTEP
6320
ITEM: NUMBER OF ATOMS
1
ITEM: BOX BOUNDS ss ss ss
26.2602 73.6741
26.2602 73.6741
-0.004 19.6193
ITEM: ATOMS id xs ys zs c_msd_abov[4] 
2881 0.522768 0.522768 1.00814 0.621203 
ITEM: TIMESTEP
6400
ITEM: NUMBER OF ATOMS
1
ITEM: BOX BOUNDS ss ss ss
26.2417 73.67
26.2417 73.67
-0.004 19.9514
ITEM: ATOMS id xs ys zs c_msd_abov[4] 
2881 0.523875 0.523875 1.0045 0.381752 
ITEM: TIMESTEP
6480
ITEM: NUMBER OF ATOMS
1
ITEM: BOX BOUNDS ss ss ss
26.2417 73.67
26.2417 73.67
-0.004 19.9514
ITEM: ATOMS id xs ys zs c_msd_abov[4] 
2881 0.524469 0.524469 1.01013 0.303845 
ITEM: TIMESTEP
6560
ITEM: NUMBER OF ATOMS
1
ITEM: BOX BOUNDS ss ss ss
26.2417 73.67
26.2417 73.67
-0.004 19.9514
ITEM: ATOMS id xs ys zs c_msd_abov[4] 
2881 0.523907 0.523907 1.02107 0.149695 
ITEM: TIMESTEP
6640
ITEM: NUMBER OF ATOMS
1
ITEM: BOX BOUNDS ss ss ss
26.2417 73.67
26.2417 73.67
-0.004 19.9514
ITEM: ATOMS id xs ys zs c_msd_abov[4] 
2881 0.521836 0.521836 1.02992 0.154727 
ITEM: TIMESTEP
6720
ITEM: NUMBER OF ATOMS
1
ITEM: BOX BOUNDS ss ss ss
26.2417 73.67
26.2417 73.67
-0.004 19.9514
ITEM: ATOMS id xs ys zs c_msd_abov[4] 
2881 0.519751 0.519751 1.02496 0.14204 
ITEM: TIMESTEP
6800
ITEM: NUMBER OF ATOMS
1
ITEM: BOX BOUNDS ss ss ss
26.2417 73.67
26.2417 73.67
-0.004 19.9514
ITEM: ATOMS id xs ys zs c_msd_abov[4] 
2881 0.519188 0.519188 1.0225 0.168637 
ITEM: TIMESTEP
6880
ITEM: NUMBER OF ATOMS
1
ITEM: BOX BOUNDS ss ss ss
26.2417 73.67
26.2417 73.67
-0.004 19.9514
ITEM: ATOMS id xs ys zs c_msd_abov[4] 
2881 0.520578 0.520578 1.031 0.191457 
ITEM: TIMESTEP
6960
ITEM: NUMBER OF ATOMS
1
ITEM: BOX BOUNDS ss ss ss
26.2417 73.67
26.2417 73.67
-0.004 19.9514
ITEM: ATOMS id xs ys zs c_msd_abov[4] 
2881 0.521334 0.521334 1.02954 0.148918 
ITEM: TIMESTEP
7040
ITEM: NUMBER OF ATOMS
1
ITEM: BOX BOUNDS ss ss ss
26.3522 73.5521
26.3522 73.5521
-0.004 20.3905
ITEM: ATOMS id xs ys zs c_msd_abov[4] 
2881 0.520489 0.520489 0.99718 0.111232 
ITEM: TIMESTEP
7120
ITEM: NUMBER OF ATOMS
1
ITEM: BOX BOUNDS ss ss ss
26.3522 73.5521
26.3522 73.5521
-0.004 20.3905
ITEM: ATOMS id xs ys zs c_msd_abov[4] 
2881 0.521612 0.521612 0.994902 0.108959 
ITEM: TIMESTEP
7200
ITEM: NUMBER OF ATOMS
1
ITEM: BOX BOUNDS ss ss ss
26.3522 73.5521
26.3522 73.5521
-0.004 20.3905
ITEM: ATOMS id xs ys zs c_msd_abov[4] 
2881 0.52435 0.52435 0.991442 0.242493 
ITEM: TIMESTEP
7280
ITEM: NUMBER OF ATOMS
1
ITEM: BOX BOUNDS ss ss ss
26.3522 73.5521
26.3522 73.5521
-0.004 20.3905
ITEM: ATOMS id xs ys zs c_msd_abov[4] 
2881 0.523556 0.523556 0.984386 0.34075 
ITEM: TIMESTEP
7360
ITEM: NUMBER OF ATOMS
1
ITEM: BOX BOUNDS ss ss ss
26.3522 73.5521
26.3522 73.5521
-0.004 20.3905
ITEM: ATOMS id xs ys zs c_msd_abov[4] 
2881 0.523438 0.523438 0.977734 0.469201 
ITEM: TIMESTEP
7440
ITEM: NUMBER OF ATOMS
1
ITEM: BOX BOUNDS ss ss ss
26.3171 73.6519
26.3171 73.6519
-0.004 19.9262
ITEM: ATOMS id xs ys zs c_msd_abov[4] 
2881 0.525683 0.525683 0.997364 0.602835 
ITEM: TIMESTEP
7520
ITEM: NUMBER OF ATOMS
1
ITEM: BOX BOUNDS ss ss ss
26.3171 73.6519
26.3171 73.6519
-0.004 19.9262
ITEM: ATOMS id xs ys zs c_msd_abov[4] 
2881 0.525423 0.525423 0.997896 0.584962 
ITEM: TIMESTEP
7600
ITEM: NUMBER OF ATOMS
1
ITEM: BOX BOUNDS ss ss ss
26.3171 73.6519
26.3171 73.6519
-0.004 19.9262
ITEM: ATOMS id xs ys zs c_msd_abov[4] 
2881 0.52254 0.52254 1 0.47713 
ITEM: TIMESTEP
7680
ITEM: NUMBER OF ATOMS
1
ITEM: BOX BOUNDS ss ss ss
26.3171 73.6519
26.3171 73.6519
-0.004 19.9262
ITEM: ATOMS id xs ys zs c_msd_abov[4] 
2881 0.522251 0.522251 1.00644 0.347567 
ITEM: TIMESTEP
7760
ITEM: NUMBER OF ATOMS
1
ITEM: BOX BOUNDS ss ss ss
26.3171 73.6519
26.3171 73.6519
-0.004 19.9262
ITEM: ATOMS id xs ys zs c_msd_abov[4] 
2881 0.520282 0.520282 1.01211 0.23357 
ITEM: TIMESTEP
7840
ITEM: NUMBER OF ATOMS
1
ITEM: BOX BOUNDS ss ss ss
26.3171 73.6519
26.3171 73.6519
-0.004 19.9262
ITEM: ATOMS id xs ys zs c_msd_abov[4] 
2881 0.517784 0.517784 1.01242 0.314549 
ITEM: TIMESTEP
7920
ITEM: NUMBER OF ATOMS
1
ITEM: BOX BOUNDS ss ss ss
26.2603 73.7405
26.2603 73.7405
-0.004 20.1768
ITEM: ATOMS id xs ys zs c_msd_abov[4] 
2881 0.518731 0.518731 0.999074 0.271639 
ITEM: TIMESTEP
8000
ITEM: NUMBER OF ATOMS
1
ITEM: BOX BOUNDS ss ss ss
26.2603 73.7405
26.2603 73.7405
-0.004 20.1768
ITEM: ATOMS id xs ys zs c_msd_abov[4] 
2881 0.521039 0.521039 0.987645 0.466991 
ITEM: TIMESTEP
8080
ITEM: NUMBER OF ATOMS
1
ITEM: BOX BOUNDS ss ss ss
26.2603 73.7405
26.2603 73.7405
-0.004 20.1768
ITEM: ATOMS id xs ys zs c_msd_abov[4] 
2881 0.51969 0.51969 0.975585 0.713393 
ITEM: TIMESTEP
8160
ITEM: NUMBER OF ATOMS
1
ITEM: BOX BOUNDS ss ss ss
26.2603 73.7405
26.2603 73.7405
-0.004 20.1768
ITEM: ATOMS id xs ys zs c_msd_abov[4] 
2881 0.517183 0.517183 0.967168 0.911582 
ITEM: TIMESTEP
8240
ITEM: NUMBER OF ATOMS
1
ITEM: BOX BOUNDS ss ss ss
26.3107 73.6649
26.3107 73.6649
-0.004 19.353
ITEM: ATOMS id xs ys zs c_msd_abov[4] 
2881 0.517107 0.517107 0.999068 1.09155 
ITEM: TIMESTEP
8320
ITEM: NUMBER OF ATOMS
1
ITEM: BOX BOUNDS ss ss ss
26.3107 73.6649
26.3107 73.6649
-0.004 19.353
ITEM: ATOMS id xs ys zs c_msd_abov[4] 
2881 0.517007 0.517007 0.999958 1.07653 
ITEM: TIMESTEP
8400
ITEM: NUMBER OF ATOMS
1
ITEM: BOX BOUNDS ss ss ss
26.3107 73.6649
26.3107 73.6649
-0.004 19.353
ITEM: ATOMS id xs ys zs c_msd_abov[4] 
2881 0.518185 0.518185 1.01402 0.793317 
ITEM: TIMESTEP
8480
ITEM: NUMBER OF ATOMS
1
ITEM: BOX BOUNDS ss ss ss
26.3107 73.6649
26.3107 73.6649
-0.004 19.353
ITEM: ATOMS id xs ys zs c_msd_abov[4] 
2881 0.519797 0.519797 1.02168 0.627013 
ITEM: TIMESTEP
8560
ITEM: NUMBER OF ATOMS
1
ITEM: BOX BOUNDS ss ss ss
26.3107 73.6649
26.3107 73.6649
-0.004 19.353
ITEM: ATOMS id xs ys zs c_msd_abov[4] 
2881 0.522182 0.522182 1.03245 0.419689 
ITEM: TIMESTEP
8640
ITEM: NUMBER OF ATOMS
1
ITEM: BOX BOUNDS ss ss ss
26.2661 73.6983
26.2661 73.6983
-0.004 20.1904
ITEM: ATOMS id xs ys zs c_msd_abov[4] 
2881 0.525213 0.525213 1.00219 0.316255 
ITEM: TIMESTEP
8720
ITEM: NUMBER OF ATOMS
1
ITEM: BOX BOUNDS ss ss ss
26.2661 73.6983
26.2661 73.6983
-0.004 20.1904
ITEM: ATOMS id xs ys zs c_msd_abov[4] 
2881 0.526291 0.526291 0.99994 0.401564 
ITEM: TIMESTEP
8800
ITEM: NUMBER OF ATOMS
1
ITEM: BOX BOUNDS ss ss ss
26.2661 73.6983
26.2661 73.6983
-0.004 20.1904
ITEM: ATOMS id xs ys zs c_msd_abov[4] 
2881 0.524189 0.524189 0.993425 0.393636 
ITEM: TIMESTEP
8880
ITEM: NUMBER OF ATOMS
1
ITEM: BOX BOUNDS ss ss ss
26.2661 73.6983
26.2661 73.6983
-0.004 20.1904
ITEM: ATOMS id xs ys zs c_msd_abov[4] 
2881 0.522596 0.522596 0.997413 0.27384 
ITEM: TIMESTEP
8960
ITEM: NUMBER OF ATOMS
1
ITEM: BOX BOUNDS ss ss ss
26.2661 73.6983
26.2661 73.6983
-0.004 20.1904
ITEM: ATOMS id xs ys zs c_msd_abov[4] 
2881 0.522696 0.522696 0.995851 0.305736 
ITEM: TIMESTEP
9040
ITEM: NUMBER OF ATOMS
1
ITEM: BOX BOUNDS ss ss ss
26.2661 73.6983
26.2661 73.6983
-0.004 20.1904
ITEM: ATOMS id xs ys zs c_msd_abov[4] 
2881 0.522289 0.522289 0.984098 0.530382 
ITEM: TIMESTEP
9120
ITEM: NUMBER OF ATOMS
1
ITEM: BOX BOUNDS ss ss ss
26.2661 73.6983
26.2661 73.6983
-0.004 20.1904
ITEM: ATOMS id xs ys zs c_msd_abov[4] 
2881 0.521823 0.521823 0.975587 0.698136 
ITEM: TIMESTEP
9200
ITEM: NUMBER OF ATOMS
1
ITEM: BOX BOUNDS ss ss ss
26.2001 73.7715
26.2001 73.7715
-0.004 19.4979
ITEM: ATOMS id xs ys zs c_msd_abov[4] 
2881 0.52204 0.52204 0.998415 0.9296 
ITEM: TIMESTEP
9280
ITEM: NUMBER OF ATOMS
1
ITEM: BOX BOUNDS ss ss ss
26.2001 73.7715
26.2001 73.7715
-0.004 19.4979
ITEM: ATOMS id xs ys zs c_msd_abov[4] 
2881 0.521383 0.521383 0.985685 1.17551 
ITEM: TIMESTEP
9360
ITEM: NUMBER OF ATOMS
1
ITEM: BOX BOUNDS ss ss ss
26.2001 73.7715
26.2001 73.7715
-0.004 19.4979
ITEM: ATOMS id xs ys zs c_msd_abov[4] 
2881 0.521796 0.521796 0.991826 1.05681 
ITEM: TIMESTEP
9440
ITEM: NUMBER OF ATOMS
1
ITEM: BOX BOUNDS ss ss ss
26.2001 73.7715
26.2001 73.7715
-0.004 19.4979
ITEM: ATOMS id xs ys zs c_msd_abov[4] 
2881 0.522398 0.522398 0.998471 0.930622 
ITEM: TIMESTEP
9520
ITEM: NUMBER OF ATOMS
1
ITEM: BOX BOUNDS ss ss ss
26.2001 73.7715
26.2001 73.7715
-0.004 19.4979
ITEM: ATOMS id xs ys zs c_msd_abov[4] 
2881 0.520535 0.520535 1.01032 0.695487 
ITEM: TIMESTEP
9600
ITEM: NUMBER OF ATOMS
1
ITEM: BOX BOUNDS ss ss ss
26.2001 73.7715
26.2001 73.7715
-0.004 19.4979
ITEM: ATOMS id xs ys zs c_msd_abov[4] 
2881 0.520795 0.520795 1.03092 0.293476 
ITEM: TIMESTEP
9680
ITEM: NUMBER OF ATOMS
1
ITEM: BOX BOUNDS ss ss ss
26.2001 73.7715
26.2001 73.7715
-0.004 19.4979
ITEM: ATOMS id xs ys zs c_msd_abov[4] 
2881 0.522266 0.522266 1.03621 0.208028 
ITEM: TIMESTEP
9760
ITEM: NUMBER OF ATOMS
1
ITEM: BOX BOUNDS ss ss ss
26.3343 73.7505
26.3343 73.7505
-0.004 20.2054
ITEM: ATOMS id xs ys zs c_msd_abov[4] 
2881 0.521261 0.521261 0.991789 0.366477 
ITEM: TIMESTEP
9840
ITEM: NUMBER OF ATOMS
1
ITEM: BOX BOUNDS ss ss ss
26.3343 73.7505
26.3343 73.7505
-0.004 20.2054
ITEM: ATOMS id xs ys zs c_msd_abov[4] 
2881 0.521958 0.521958 0.999928 0.23572 
ITEM: TIMESTEP
9920
ITEM: NUMBER OF ATOMS
1
ITEM: BOX BOUNDS ss ss ss
26.3343 73.7505
26.3343 73.7505
-0.004 20.2054
ITEM: ATOMS id xs ys zs c_msd_abov[4] 
2881 0.523422 0.523422 1.0087 0.237925 
ITEM: TIMESTEP
10000
ITEM: NUMBER OF ATOMS
1
ITEM: BOX BOUNDS ss ss ss
26.3343 73.7505
26.3343 73.7505
-0.004 20.2054
ITEM: ATOMS id xs ys zs c_msd_abov[4] 
2881 0.52174 0.52174 1.00578 0.143979 
ITEM: TIMESTEP
10080
ITEM: NUMBER OF ATOMS
1
ITEM: BOX BOUNDS ss ss ss
26.3343 73.7505
26.3343 73.7505
-0.004 20.2054
ITEM: ATOMS id xs ys zs c_msd_abov[4] 
2881 0.518046 0.518046 1.00397 0.163887 
ITEM: TIMESTEP
10160
ITEM: NUMBER OF ATOMS
1
ITEM: BOX BOUNDS ss ss ss
26.1585 73.6756
26.1585 73.6756
-0.004 20.3735
ITEM: ATOMS id xs ys zs c_msd_abov[4] 
2881 0.520644 0.520644 1.00234 0.126049 
ITEM: TIMESTEP
10240
ITEM: NUMBER OF ATOMS
1
ITEM: BOX BOUNDS ss ss ss
26.1585 73.6756
26.1585 73.6756
-0.004 20.3735
ITEM: ATOMS id xs ys zs c_msd_abov[4] 
2881 0.52108 0.52108 1.00044 0.0945434 
ITEM: TIMESTEP
10320
ITEM: NUMBER OF ATOMS
1
ITEM: BOX BOUNDS ss ss ss
26.1585 73.6756
26.1585 73.6756
-0.004 20.3735
ITEM: ATOMS id xs ys zs c_msd_abov[4] 
2881 0.519279 0.519279 0.997966 0.223553 
ITEM: TIMESTEP
10400
ITEM: NUMBER OF ATOMS
1
ITEM: BOX BOUNDS ss ss ss
26.1585 73.6756
26.1585 73.6756
-0.004 20.3735
ITEM: ATOMS id xs ys zs c_msd_abov[4] 
2881 0.51762 0.51762 1.00082 0.326319 
ITEM: TIMESTEP
10480
ITEM: NUMBER OF ATOMS
1
ITEM: BOX BOUNDS ss ss ss
26.1585 73.6756
26.1585 73.6756
-0.004 20.3735
ITEM: ATOMS id xs ys zs c_msd_abov[4] 
2881 0.517976 0.517976 0.996553 0.315723 
ITEM: TIMESTEP
10560
ITEM: NUMBER OF ATOMS
1
ITEM: BOX BOUNDS ss ss ss
26.1585 73.6756
26.1585 73.6756
-0.004 20.3735
ITEM: ATOMS id xs ys zs c_msd_abov[4] 
2881 0.520255 0.520255 0.988667 0.292375 
ITEM: TIMESTEP
10640
ITEM: NUMBER OF ATOMS
1
ITEM: BOX BOUNDS ss ss ss
26.1585 73.6756
26.1585 73.6756
-0.004 20.3735
ITEM: ATOMS id xs ys zs c_msd_abov[4] 
2881 0.522683 0.522683 0.993077 0.162176 
ITEM: TIMESTEP
10720
ITEM: NUMBER OF ATOMS
1
ITEM: BOX BOUNDS ss ss ss
26.1585 73.6756
26.1585 73.6756
-0.004 20.3735
ITEM: ATOMS id xs ys zs c_msd_abov[4] 
2881 0.524514 0.524514 0.999338 0.141143 
ITEM: TIMESTEP
10800
ITEM: NUMBER OF ATOMS
1
ITEM: BOX BOUNDS ss ss ss
26.0459 74.0048
26.0459 74.0048
-0.004 20.3727
ITEM: ATOMS id xs ys zs c_msd_abov[4] 
2881 0.522668 0.522668 1.00018 0.181132 
ITEM: TIMESTEP
10880
ITEM: NUMBER OF ATOMS
1
ITEM: BOX BOUNDS ss ss ss
26.0459 74.0048
26.0459 74.0048
-0.004 20.3727
ITEM: ATOMS id xs ys zs c_msd_abov[4] 
2881 0.521584 0.521584 0.996259 0.144628 
ITEM: TIMESTEP
10960
ITEM: NUMBER OF ATOMS
1
ITEM: BOX BOUNDS ss ss ss
26.0459 74.0048
26.0459 74.0048
-0.004 20.3727
ITEM: ATOMS id xs ys zs c_msd_abov[4] 
2881 0.52033 0.52033 0.985095 0.325751 
ITEM: TIMESTEP
11040
ITEM: NUMBER OF ATOMS
1
ITEM: BOX BOUNDS ss ss ss
26.0459 74.0048
26.0459 74.0048
-0.004 20.3727
ITEM: ATOMS id xs ys zs c_msd_abov[4] 
2881 0.520111 0.520111 0.975033 0.530103 
ITEM: TIMESTEP
11120
ITEM: NUMBER OF ATOMS
1
ITEM: BOX BOUNDS ss ss ss
26.0008 73.6673
26.0008 73.6673
-0.004 19.866
ITEM: ATOMS id xs ys zs c_msd_abov[4] 
2881 0.526576 0.526576 1.00414 0.474949 
ITEM: TIMESTEP
11200
ITEM: NUMBER OF ATOMS
1
ITEM: BOX BOUNDS ss ss ss
26.0008 73.6673
26.0008 73.6673
-0.004 19.866
ITEM: ATOMS id xs ys zs c_msd_abov[4] 
2881 0.527757 0.527757 1.00337 0.521337 
ITEM: TIMESTEP
11280
ITEM: NUMBER OF ATOMS
1
ITEM: BOX BOUNDS ss ss ss
26.1204 73.788
26.1204 73.788
-0.004 19.7422
ITEM: ATOMS id xs ys zs c_msd_abov[4] 
2881 0.524006 0.524006 0.999041 0.689646 
ITEM: TIMESTEP
11360
ITEM: NUMBER OF ATOMS
1
ITEM: BOX BOUNDS ss ss ss
26.1204 73.788
26.1204 73.788
-0.004 19.7422
ITEM: ATOMS id xs ys zs c_msd_abov[4] 
2881 0.524023 0.524023 0.997787 0.71402 
ITEM: TIMESTEP
11440
ITEM: NUMBER OF ATOMS
1
ITEM: BOX BOUNDS ss ss ss
26.1204 73.788
26.1204 73.788
-0.004 19.7422
ITEM: ATOMS id xs ys zs c_msd_abov[4] 
2881 0.52475 0.52475 0.99872 0.709065 
ITEM: TIMESTEP
11520
ITEM: NUMBER OF ATOMS
1
ITEM: BOX BOUNDS ss ss ss
26.1204 73.788
26.1204 73.788
-0.004 19.7422
ITEM: ATOMS id xs ys zs c_msd_abov[4] 
2881 0.52188 0.52188 0.992113 0.807696 
ITEM: TIMESTEP
11600
ITEM: NUMBER OF ATOMS
1
ITEM: BOX BOUNDS ss ss ss
26.1204 73.788
26.1204 73.788
-0.004 19.7422
ITEM: ATOMS id xs ys zs c_msd_abov[4] 
2881 0.519749 0.519749 0.990718 0.844582 
ITEM: TIMESTEP
11680
ITEM: NUMBER OF ATOMS
1
ITEM: BOX BOUNDS ss ss ss
26.0443 73.7826
26.0443 73.7826
-0.004 19.5995
ITEM: ATOMS id xs ys zs c_msd_abov[4] 
2881 0.522275 0.522275 1.00512 0.69427 
ITEM: TIMESTEP
11760
ITEM: NUMBER OF ATOMS
1
ITEM: BOX BOUNDS ss ss ss
26.0443 73.7826
26.0443 73.7826
-0.004 19.5995
ITEM: ATOMS id xs ys zs c_msd_abov[4] 
2881 0.521776 0.521776 1.00834 0.632634 
ITEM: TIMESTEP
11840
ITEM: NUMBER OF ATOMS
1
ITEM: BOX BOUNDS ss ss ss
26.0443 73.7826
26.0443 73.7826
-0.004 19.5995
ITEM: ATOMS id xs ys zs c_msd_abov[4] 
2881 0.522245 0.522245 1.01283 0.543234 
ITEM: TIMESTEP
11920
ITEM: NUMBER OF ATOMS
1
ITEM: BOX BOUNDS ss ss ss
26.0537 73.6961
26.0537 73.6961
-0.004 19.875
ITEM: ATOMS id xs ys zs c_msd_abov[4] 
2881 0.525363 0.525363 0.999349 0.549784 
ITEM: TIMESTEP
12000
ITEM: NUMBER OF ATOMS
1
ITEM: BOX BOUNDS ss ss ss
26.0537 73.6961
26.0537 73.6961
-0.004 19.875
ITEM: ATOMS id xs ys zs c_msd_abov[4] 
2881 0.524219 0.524219 0.997554 0.57096 
ITEM: TIMESTEP
12080
ITEM: NUMBER OF ATOMS
1
ITEM: BOX BOUNDS ss ss ss
26.0537 73.6961
26.0537 73.6961
-0.004 19.875
ITEM: ATOMS id xs ys zs c_msd_abov[4] 
2881 0.520526 0.520526 0.999617 0.55877 
ITEM: TIMESTEP
12160
ITEM: NUMBER OF ATOMS
1
ITEM: BOX BOUNDS ss ss ss
26.0537 73.6961
26.0537 73.6961
-0.004 19.875