ITEM: TIMESTEP
0
ITEM: NUMBER OF ATOMS
1
ITEM: BOX BOUNDS ss ss ss
26.5002 73.4304
26.5002 73.4304
-0.004 20.398
ITEM: ATOMS id xs ys zs c_msd_abov[4] 
2881 0.521728 0.521728 0.999804 0 
ITEM: TIMESTEP
80
ITEM: NUMBER OF ATOMS
1
ITEM: BOX BOUNDS ss ss ss
26.5002 73.4304
26.5002 73.4304
-0.004 20.398
ITEM: ATOMS id xs ys zs c_msd_abov[4] 
2881 0.521728 0.521728 0.98685 0.264287 
ITEM: TIMESTEP
160
ITEM: NUMBER OF ATOMS
1
ITEM: BOX BOUNDS ss ss ss
26.5002 73.4304
26.5002 73.4304
-0.004 20.398
ITEM: ATOMS id xs ys zs c_msd_abov[4] 
2881 0.521728 0.521728 0.970173 0.604535 
ITEM: TIMESTEP
240
ITEM: NUMBER OF ATOMS
1
ITEM: BOX BOUNDS ss ss ss
26.5002 73.4304
26.5002 73.4304
-0.004 20.398
ITEM: ATOMS id xs ys zs c_msd_abov[4] 
2881 0.521728 0.521728 0.96945 0.619274 
ITEM: TIMESTEP
320
ITEM: NUMBER OF ATOMS
1
ITEM: BOX BOUNDS ss ss ss
26.4785 73.4521
26.4785 73.4521
-0.004 19.5866
ITEM: ATOMS id xs ys zs c_msd_abov[4] 
2881 0.521708 0.521708 0.998381 0.839122 
ITEM: TIMESTEP
400
ITEM: NUMBER OF ATOMS
1
ITEM: BOX BOUNDS ss ss ss
26.4785 73.4521
26.4785 73.4521
-0.004 19.5866
ITEM: ATOMS id xs ys zs c_msd_abov[4] 
2881 0.521709 0.521709 0.987054 1.06102 
ITEM: TIMESTEP
480
ITEM: NUMBER OF ATOMS
1
ITEM: BOX BOUNDS ss ss ss
26.4785 73.4521
26.4785 73.4521
-0.004 19.5866
ITEM: ATOMS id xs ys zs c_msd_abov[4] 
2881 0.521712 0.521712 0.992543 0.953486 
ITEM: TIMESTEP
560
ITEM: NUMBER OF ATOMS
1
ITEM: BOX BOUNDS ss ss ss
26.4785 73.4521
26.4785 73.4521
-0.004 19.5866
ITEM: ATOMS id xs ys zs c_msd_abov[4] 
2881 0.521721 0.521721 0.993133 0.941934 
ITEM: TIMESTEP
640
ITEM: NUMBER OF ATOMS
1
ITEM: BOX BOUNDS ss ss ss
26.4785 73.4521
26.4785 73.4521
-0.004 19.5866
ITEM: ATOMS id xs ys zs c_msd_abov[4] 
2881 0.521741 0.521741 0.99336 0.937477 
ITEM: TIMESTEP
720
ITEM: NUMBER OF ATOMS
1
ITEM: BOX BOUNDS ss ss ss
26.4785 73.4521
26.4785 73.4521
-0.004 19.5866
ITEM: ATOMS id xs ys zs c_msd_abov[4] 
2881 0.521746 0.521746 1.00151 0.77775 
ITEM: TIMESTEP
800
ITEM: NUMBER OF ATOMS
1
ITEM: BOX BOUNDS ss ss ss
26.4785 73.4521
26.4785 73.4521
-0.004 19.5866
ITEM: ATOMS id xs ys zs c_msd_abov[4] 
2881 0.521713 0.521713 1.00364 0.736112 
ITEM: TIMESTEP
880
ITEM: NUMBER OF ATOMS
1
ITEM: BOX BOUNDS ss ss ss
26.4785 73.4521
26.4785 73.4521
-0.004 19.5866
ITEM: ATOMS id xs ys zs c_msd_abov[4] 
2881 0.521585 0.521585 1.0068 0.674137 
ITEM: TIMESTEP
960
ITEM: NUMBER OF ATOMS
1
ITEM: BOX BOUNDS ss ss ss
26.4785 73.4521
26.4785 73.4521
-0.004 19.5866
ITEM: ATOMS id xs ys zs c_msd_abov[4] 
2881 0.521421 0.521421 1.01277 0.557508 
ITEM: TIMESTEP
1040
ITEM: NUMBER OF ATOMS
1
ITEM: BOX BOUNDS ss ss ss
26.4785 73.4521
26.4785 73.4521
-0.004 19.5866
ITEM: ATOMS id xs ys zs c_msd_abov[4] 
2881 0.521305 0.521305 1.01395 0.534776 
ITEM: TIMESTEP
1120
ITEM: NUMBER OF ATOMS
1
ITEM: BOX BOUNDS ss ss ss
26.4785 73.4521
26.4785 73.4521
-0.004 19.5866
ITEM: ATOMS id xs ys zs c_msd_abov[4] 
2881 0.521283 0.521283 1.02522 0.314516 
ITEM: TIMESTEP
1200
ITEM: NUMBER OF ATOMS
1
ITEM: BOX BOUNDS ss ss ss
26.4785 73.4521
26.4785 73.4521
-0.004 19.5866
ITEM: ATOMS id xs ys zs c_msd_abov[4] 
2881 0.521298 0.521298 1.0359 0.107675 
ITEM: TIMESTEP
1280
ITEM: NUMBER OF ATOMS
1
ITEM: BOX BOUNDS ss ss ss
26.42 73.5122
26.42 73.5122
-0.004 20.2678
ITEM: ATOMS id xs ys zs c_msd_abov[4] 
2881 0.521239 0.521239 0.997825 0.172298 
ITEM: TIMESTEP
1360
ITEM: NUMBER OF ATOMS
1
ITEM: BOX BOUNDS ss ss ss
26.42 73.5122
26.42 73.5122
-0.004 20.2678
ITEM: ATOMS id xs ys zs c_msd_abov[4] 
2881 0.521314 0.521314 1.00518 0.0300936 
ITEM: TIMESTEP
1440
ITEM: NUMBER OF ATOMS
1
ITEM: BOX BOUNDS ss ss ss
26.42 73.5122
26.42 73.5122
-0.004 20.2678
ITEM: ATOMS id xs ys zs c_msd_abov[4] 
2881 0.521328 0.521328 1.01745 0.228427 
ITEM: TIMESTEP
1520
ITEM: NUMBER OF ATOMS
1
ITEM: BOX BOUNDS ss ss ss
26.42 73.5122
26.42 73.5122
-0.004 20.2678
ITEM: ATOMS id xs ys zs c_msd_abov[4] 
2881 0.521277 0.521277 1.01502 0.180003 
ITEM: TIMESTEP
1600
ITEM: NUMBER OF ATOMS
1
ITEM: BOX BOUNDS ss ss ss
26.42 73.5122
26.42 73.5122
-0.004 20.2678
ITEM: ATOMS id xs ys zs c_msd_abov[4] 
2881 0.521364 0.521364 1.01613 0.201603 
ITEM: TIMESTEP
1680
ITEM: NUMBER OF ATOMS
1
ITEM: BOX BOUNDS ss ss ss
26.42 73.5122
26.42 73.5122
-0.004 20.2678
ITEM: ATOMS id xs ys zs c_msd_abov[4] 
2881 0.521593 0.521593 1.01926 0.264276 
ITEM: TIMESTEP
1760
ITEM: NUMBER OF ATOMS
1
ITEM: BOX BOUNDS ss ss ss
26.42 73.5122
26.42 73.5122
-0.004 20.2678
ITEM: ATOMS id xs ys zs c_msd_abov[4] 
2881 0.521868 0.521868 1.00718 0.0247868 
ITEM: TIMESTEP
1840
ITEM: NUMBER OF ATOMS
1
ITEM: BOX BOUNDS ss ss ss
26.42 73.5122
26.42 73.5122
-0.004 20.2678
ITEM: ATOMS id xs ys zs c_msd_abov[4] 
2881 0.522324 0.522324 0.998047 0.171961 
ITEM: TIMESTEP
1920
ITEM: NUMBER OF ATOMS
1
ITEM: BOX BOUNDS ss ss ss
26.42 73.5122
26.42 73.5122
-0.004 20.2678
ITEM: ATOMS id xs ys zs c_msd_abov[4] 
2881 0.522527 0.522527 0.998462 0.168164 
ITEM: TIMESTEP
2000
ITEM: NUMBER OF ATOMS
1
ITEM: BOX BOUNDS ss ss ss
26.4119 73.5133
26.4119 73.5133
-0.004 20.1742
ITEM: ATOMS id xs ys zs c_msd_abov[4] 
2881 0.522476 0.522476 0.992815 0.368338 
ITEM: TIMESTEP
2080
ITEM: NUMBER OF ATOMS
1
ITEM: BOX BOUNDS ss ss ss
26.4119 73.5133
26.4119 73.5133
-0.004 20.1742
ITEM: ATOMS id xs ys zs c_msd_abov[4] 
2881 0.522199 0.522199 0.981858 0.586773 
ITEM: TIMESTEP
2160
ITEM: NUMBER OF ATOMS
1
ITEM: BOX BOUNDS ss ss ss
26.4119 73.5133
26.4119 73.5133
-0.004 20.1742
ITEM: ATOMS id xs ys zs c_msd_abov[4] 
2881 0.521927 0.521927 0.977562 0.672705 
ITEM: TIMESTEP
2240
ITEM: NUMBER OF ATOMS
1
ITEM: BOX BOUNDS ss ss ss
26.4119 73.5133
26.4119 73.5133
-0.004 20.1742
ITEM: ATOMS id xs ys zs c_msd_abov[4] 
2881 0.521434 0.521434 0.967558 0.874596 
ITEM: TIMESTEP
2320
ITEM: NUMBER OF ATOMS
1
ITEM: BOX BOUNDS ss ss ss
26.4119 73.5133
26.4119 73.5133
-0.004 20.1742
ITEM: ATOMS id xs ys zs c_msd_abov[4] 
2881 0.521006 0.521006 0.966023 0.906583 
ITEM: TIMESTEP
2400
ITEM: NUMBER OF ATOMS
1
ITEM: BOX BOUNDS ss ss ss
26.4119 73.5133
26.4119 73.5133
-0.004 20.1742
ITEM: ATOMS id xs ys zs c_msd_abov[4] 
2881 0.521529 0.521529 0.971189 0.801228 
ITEM: TIMESTEP
2480
ITEM: NUMBER OF ATOMS
1
ITEM: BOX BOUNDS ss ss ss
26.4119 73.5133
26.4119 73.5133
-0.004 20.1742
ITEM: ATOMS id xs ys zs c_msd_abov[4] 
2881 0.52209 0.52209 0.962388 0.979057 
ITEM: TIMESTEP
2560
ITEM: NUMBER OF ATOMS
1
ITEM: BOX BOUNDS ss ss ss
26.4119 73.5133
26.4119 73.5133
-0.004 20.1742
ITEM: ATOMS id xs ys zs c_msd_abov[4] 
2881 0.52256 0.52256 0.954285 1.14365 
ITEM: TIMESTEP
2640
ITEM: NUMBER OF ATOMS
1
ITEM: BOX BOUNDS ss ss ss
26.4119 73.5133
26.4119 73.5133
-0.004 20.1742
ITEM: ATOMS id xs ys zs c_msd_abov[4] 
2881 0.523215 0.523215 0.960183 1.02813 
ITEM: TIMESTEP
2720
ITEM: NUMBER OF ATOMS
1
ITEM: BOX BOUNDS ss ss ss
26.4119 73.5133
26.4119 73.5133
-0.004 20.1742
ITEM: ATOMS id xs ys zs c_msd_abov[4] 
2881 0.52317 0.52317 0.962019 0.990985 
ITEM: TIMESTEP
2800
ITEM: NUMBER OF ATOMS
1
ITEM: BOX BOUNDS ss ss ss
26.4119 73.5133
26.4119 73.5133
-0.004 20.1742
ITEM: ATOMS id xs ys zs c_msd_abov[4] 
2881 0.522154 0.522154 0.964019 0.946274 
ITEM: TIMESTEP
2880
ITEM: NUMBER OF ATOMS
1
ITEM: BOX BOUNDS ss ss ss
26.4119 73.5133
26.4119 73.5133
-0.004 20.1742
ITEM: ATOMS id xs ys zs c_msd_abov[4] 
2881 0.521263 0.521263 0.967808 0.869858 
ITEM: TIMESTEP
2960
ITEM: NUMBER OF ATOMS
1
ITEM: BOX BOUNDS ss ss ss
26.4119 73.5133
26.4119 73.5133
-0.004 20.1742
ITEM: ATOMS id xs ys zs c_msd_abov[4] 
2881 0.520609 0.520609 0.965762 0.913575 
ITEM: TIMESTEP
3040
ITEM: NUMBER OF ATOMS
1
ITEM: BOX BOUNDS ss ss ss
26.4119 73.5133
26.4119 73.5133
-0.004 20.1742
ITEM: ATOMS id xs ys zs c_msd_abov[4] 
2881 0.52064 0.52064 0.971604 0.795942 
ITEM: TIMESTEP
3120
ITEM: NUMBER OF ATOMS
1
ITEM: BOX BOUNDS ss ss ss
26.4119 73.5133
26.4119 73.5133
-0.004 20.1742
ITEM: ATOMS id xs ys zs c_msd_abov[4] 
2881 0.520945 0.520945 0.981569 0.59385 
ITEM: TIMESTEP
3200
ITEM: NUMBER OF ATOMS
1
ITEM: BOX BOUNDS ss ss ss
26.4119 73.5133
26.4119 73.5133
-0.004 20.1742
ITEM: ATOMS id xs ys zs c_msd_abov[4] 
2881 0.520447 0.520447 0.980205 0.62487 
ITEM: TIMESTEP
3280
ITEM: NUMBER OF ATOMS
1
ITEM: BOX BOUNDS ss ss ss
26.3975 73.5323
26.3975 73.5323
-0.004 19.7598
ITEM: ATOMS id xs ys zs c_msd_abov[4] 
2881 0.519301 0.519301 1.00357 0.584903 
ITEM: TIMESTEP
3360
ITEM: NUMBER OF ATOMS
1
ITEM: BOX BOUNDS ss ss ss
26.3975 73.5323
26.3975 73.5323
-0.004 19.7598
ITEM: ATOMS id xs ys zs c_msd_abov[4] 
2881 0.51969 0.51969 1.01813 0.305117 
ITEM: TIMESTEP
3440
ITEM: NUMBER OF ATOMS
1
ITEM: BOX BOUNDS ss ss ss
26.3975 73.5323
26.3975 73.5323
-0.004 19.7598
ITEM: ATOMS id xs ys zs c_msd_abov[4] 
2881 0.520746 0.520746 1.02286 0.19188 
ITEM: TIMESTEP
3520
ITEM: NUMBER OF ATOMS
1
ITEM: BOX BOUNDS ss ss ss
26.3975 73.5323
26.3975 73.5323
-0.004 19.7598
ITEM: ATOMS id xs ys zs c_msd_abov[4] 
2881 0.521497 0.521497 1.02624 0.116125 
ITEM: TIMESTEP
3600
ITEM: NUMBER OF ATOMS
1
ITEM: BOX BOUNDS ss ss ss
26.3975 73.5323
26.3975 73.5323
-0.004 19.7598
ITEM: ATOMS id xs ys zs c_msd_abov[4] 
2881 0.521575 0.521575 1.02519 0.136554 
ITEM: TIMESTEP
3680
ITEM: NUMBER OF ATOMS
1
ITEM: BOX BOUNDS ss ss ss
26.3975 73.5323
26.3975 73.5323
-0.004 19.7598
ITEM: ATOMS id xs ys zs c_msd_abov[4] 
2881 0.5212 0.5212 1.01284 0.381677 
ITEM: TIMESTEP
3760
ITEM: NUMBER OF ATOMS
1
ITEM: BOX BOUNDS ss ss ss
26.3975 73.5323
26.3975 73.5323
-0.004 19.7598
ITEM: ATOMS id xs ys zs c_msd_abov[4] 
2881 0.520411 0.520411 1.01075 0.429694 
ITEM: TIMESTEP
3840
ITEM: NUMBER OF ATOMS
1
ITEM: BOX BOUNDS ss ss ss
26.2231 73.6885
26.2231 73.6885
-0.004 20.0438
ITEM: ATOMS id xs ys zs c_msd_abov[4] 
2881 0.520469 0.520469 1.00278 0.305468 
ITEM: TIMESTEP
3920
ITEM: NUMBER OF ATOMS
1
ITEM: BOX BOUNDS ss ss ss
26.2231 73.6885
26.2231 73.6885
-0.004 20.0438
ITEM: ATOMS id xs ys zs c_msd_abov[4] 
2881 0.521284 0.521284 1.00349 0.281491 
ITEM: TIMESTEP
4000
ITEM: NUMBER OF ATOMS
1
ITEM: BOX BOUNDS ss ss ss
26.2231 73.6885
26.2231 73.6885
-0.004 20.0438
ITEM: ATOMS id xs ys zs c_msd_abov[4] 
2881 0.522469 0.522469 1.00143 0.325943 
ITEM: TIMESTEP
4080
ITEM: NUMBER OF ATOMS
1
ITEM: BOX BOUNDS ss ss ss
26.2231 73.6885
26.2231 73.6885
-0.004 20.0438
ITEM: ATOMS id xs ys zs c_msd_abov[4] 
2881 0.523465 0.523465 0.995257 0.461077 
ITEM: TIMESTEP
4160
ITEM: NUMBER OF ATOMS
1
ITEM: BOX BOUNDS ss ss ss
26.2231 73.6885
26.2231 73.6885
-0.004 20.0438
ITEM: ATOMS id xs ys zs c_msd_abov[4] 
2881 0.523589 0.523589 0.991553 0.535086 
ITEM: TIMESTEP
4240
ITEM: NUMBER OF ATOMS
1
ITEM: BOX BOUNDS ss ss ss
26.2231 73.6885
26.2231 73.6885
-0.004 20.0438
ITEM: ATOMS id xs ys zs c_msd_abov[4] 
2881 0.523742 0.523742 0.994781 0.475384 
ITEM: TIMESTEP
4320
ITEM: NUMBER OF ATOMS
1
ITEM: BOX BOUNDS ss ss ss
26.2231 73.6885
26.2231 73.6885
-0.004 20.0438
ITEM: ATOMS id xs ys zs c_msd_abov[4] 
2881 0.524232 0.524232 0.996925 0.445989 
ITEM: TIMESTEP
4400
ITEM: NUMBER OF ATOMS
1
ITEM: BOX BOUNDS ss ss ss
26.2231 73.6885
26.2231 73.6885
-0.004 20.0438
ITEM: ATOMS id xs ys zs c_msd_abov[4] 
2881 0.524582 0.524582 0.999081 0.416849 
ITEM: TIMESTEP
4480
ITEM: NUMBER OF ATOMS
1
ITEM: BOX BOUNDS ss ss ss
26.2231 73.6885
26.2231 73.6885
-0.004 20.0438
ITEM: ATOMS id xs ys zs c_msd_abov[4] 
2881 0.524336 0.524336 1.00192 0.359059 
ITEM: TIMESTEP
4560
ITEM: NUMBER OF ATOMS
1
ITEM: BOX BOUNDS ss ss ss
26.2231 73.6885
26.2231 73.6885
-0.004 20.0438
ITEM: ATOMS id xs ys zs c_msd_abov[4] 
2881 0.52333 0.52333 1.00445 0.283407 
ITEM: TIMESTEP
4640
ITEM: NUMBER OF ATOMS
1
ITEM: BOX BOUNDS ss ss ss
26.445 73.4819
26.445 73.4819
-0.004 20.2222
ITEM: ATOMS id xs ys zs c_msd_abov[4] 
2881 0.522186 0.522186 1.0022 0.131104 
ITEM: TIMESTEP
4720
ITEM: NUMBER OF ATOMS
1
ITEM: BOX BOUNDS ss ss ss
26.445 73.4819
26.445 73.4819
-0.004 20.2222
ITEM: ATOMS id xs ys zs c_msd_abov[4] 
2881 0.521654 0.521654 1.00727 0.0250815 
ITEM: TIMESTEP
4800
ITEM: NUMBER OF ATOMS
1
ITEM: BOX BOUNDS ss ss ss
26.445 73.4819
26.445 73.4819
-0.004 20.2222
ITEM: ATOMS id xs ys zs c_msd_abov[4] 
2881 0.521796 0.521796 1.003 0.111217 
ITEM: TIMESTEP
4880
ITEM: NUMBER OF ATOMS
1
ITEM: BOX BOUNDS ss ss ss
26.445 73.4819
26.445 73.4819
-0.004 20.2222
ITEM: ATOMS id xs ys zs c_msd_abov[4] 
2881 0.52152 0.52152 0.999075 0.190997 
ITEM: TIMESTEP
4960
ITEM: NUMBER OF ATOMS
1
ITEM: BOX BOUNDS ss ss ss
26.445 73.4819
26.445 73.4819
-0.004 20.2222
ITEM: ATOMS id xs ys zs c_msd_abov[4] 
2881 0.51972 0.51972 1.0001 0.215644 
ITEM: TIMESTEP
5040
ITEM: NUMBER OF ATOMS
1
ITEM: BOX BOUNDS ss ss ss
26.445 73.4819
26.445 73.4819
-0.004 20.2222
ITEM: ATOMS id xs ys zs c_msd_abov[4] 
2881 0.51811 0.51811 0.994964 0.363998 
ITEM: TIMESTEP
5120
ITEM: NUMBER OF ATOMS
1
ITEM: BOX BOUNDS ss ss ss
26.445 73.4819
26.445 73.4819
-0.004 20.2222
ITEM: ATOMS id xs ys zs c_msd_abov[4] 
2881 0.518069 0.518069 0.989862 0.448283 
ITEM: TIMESTEP
5200
ITEM: NUMBER OF ATOMS
1
ITEM: BOX BOUNDS ss ss ss
26.445 73.4819
26.445 73.4819
-0.004 20.2222
ITEM: ATOMS id xs ys zs c_msd_abov[4] 
2881 0.519262 0.519262 0.987174 0.461165 
ITEM: TIMESTEP
5280
ITEM: NUMBER OF ATOMS
1
ITEM: BOX BOUNDS ss ss ss
26.3686 73.6626
26.3686 73.6626
-0.004 19.8733
ITEM: ATOMS id xs ys zs c_msd_abov[4] 
2881 0.519443 0.519443 0.998596 0.5531 
ITEM: TIMESTEP
5360
ITEM: NUMBER OF ATOMS
1
ITEM: BOX BOUNDS ss ss ss
26.3686 73.6626
26.3686 73.6626
-0.004 19.8733
ITEM: ATOMS id xs ys zs c_msd_abov[4] 
2881 0.520828 0.520828 0.999625 0.528596 
ITEM: TIMESTEP
5440
ITEM: NUMBER OF ATOMS
1
ITEM: BOX BOUNDS ss ss ss
26.3686 73.6626
26.3686 73.6626
-0.004 19.8733
ITEM: ATOMS id xs ys zs c_msd_abov[4] 
2881 0.521992 0.521992 0.998932 0.551037 
ITEM: TIMESTEP
5520
ITEM: NUMBER OF ATOMS
1
ITEM: BOX BOUNDS ss ss ss
26.3686 73.6626
26.3686 73.6626
-0.004 19.8733
ITEM: ATOMS id xs ys zs c_msd_abov[4] 
2881 0.522986 0.522986 0.985791 0.820178 
ITEM: TIMESTEP
5600
ITEM: NUMBER OF ATOMS
1
ITEM: BOX BOUNDS ss ss ss
26.3686 73.6626
26.3686 73.6626
-0.004 19.8733
ITEM: ATOMS id xs ys zs c_msd_abov[4] 
2881 0.52276 0.52276 0.979158 0.947126 
ITEM: TIMESTEP
5680
ITEM: NUMBER OF ATOMS
1
ITEM: BOX BOUNDS ss ss ss
26.3686 73.6626
26.3686 73.6626
-0.004 19.8733
ITEM: ATOMS id xs ys zs c_msd_abov[4] 
2881 0.520282 0.520282 0.986018 0.798736 
ITEM: TIMESTEP
5760
ITEM: NUMBER OF ATOMS
1
ITEM: BOX BOUNDS ss ss ss
26.2511 73.6834
26.2511 73.6834
-0.004 19.6039
ITEM: ATOMS id xs ys zs c_msd_abov[4] 
2881 0.520027 0.520027 0.998215 0.830602 
ITEM: TIMESTEP
5840
ITEM: NUMBER OF ATOMS
1
ITEM: BOX BOUNDS ss ss ss
26.2511 73.6834
26.2511 73.6834
-0.004 19.6039
ITEM: ATOMS id xs ys zs c_msd_abov[4] 
2881 0.520944 0.520944 0.985982 1.06548 
ITEM: TIMESTEP
5920
ITEM: NUMBER OF ATOMS
1
ITEM: BOX BOUNDS ss ss ss
26.2511 73.6834
26.2511 73.6834
-0.004 19.6039
ITEM: ATOMS id xs ys zs c_msd_abov[4] 
2881 0.521016 0.521016 0.977722 1.22723 
ITEM: TIMESTEP
6000
ITEM: NUMBER OF ATOMS
1
ITEM: BOX BOUNDS ss ss ss
26.2511 73.6834
26.2511 73.6834
-0.004 19.6039
ITEM: ATOMS id xs ys zs c_msd_abov[4] 
2881 0.520724 0.520724 0.971687 1.3461 
ITEM: TIMESTEP
6080
ITEM: NUMBER OF ATOMS
1
ITEM: BOX BOUNDS ss ss ss
26.2511 73.6834
26.2511 73.6834
-0.004 19.6039
ITEM: ATOMS id xs ys zs c_msd_abov[4] 
2881 0.522203 0.522203 0.972921 1.32196 
ITEM: TIMESTEP
6160
ITEM: NUMBER OF ATOMS
1
ITEM: BOX BOUNDS ss ss ss
26.2511 73.6834
26.2511 73.6834
-0.004 19.6039
ITEM: ATOMS id xs ys zs c_msd_abov[4] 
2881 0.522163 0.522163 0.979779 1.18749 
ITEM: TIMESTEP
6240
ITEM: NUMBER OF ATOMS
1
ITEM: BOX BOUNDS ss ss ss
26.2511 73.6834
26.2511 73.6834
-0.004 19.6039
ITEM: ATOMS id xs ys zs c_msd_abov[4] 
2881 0.521902 0.521902 0.990097 0.984687 
ITEM: TIMESTEP
6320
ITEM: NUMBER OF ATOMS
1
ITEM: BOX BOUNDS ss ss ss
26.2511 73.6834
26.2511 73.6834
-0.004 19.6039
ITEM: ATOMS id xs ys zs c_msd_abov[4] 
2881 0.52274 0.52274 1.0086 0.627364 
ITEM: TIMESTEP
6400
ITEM: NUMBER OF ATOMS
1
ITEM: BOX BOUNDS ss ss ss
26.2265 73.6901
26.2265 73.6901
-0.004 19.8029
ITEM: ATOMS id xs ys zs c_msd_abov[4] 
2881 0.523867 0.523867 1.01202 0.38358 
ITEM: TIMESTEP
6480
ITEM: NUMBER OF ATOMS
1
ITEM: BOX BOUNDS ss ss ss
26.2265 73.6901
26.2265 73.6901
-0.004 19.8029
ITEM: ATOMS id xs ys zs c_msd_abov[4] 
2881 0.524534 0.524534 1.01782 0.307738 
ITEM: TIMESTEP
6560
ITEM: NUMBER OF ATOMS
1
ITEM: BOX BOUNDS ss ss ss
26.2265 73.6901
26.2265 73.6901
-0.004 19.8029
ITEM: ATOMS id xs ys zs c_msd_abov[4] 
2881 0.523989 0.523989 1.02887 0.159418 
ITEM: TIMESTEP
6640
ITEM: NUMBER OF ATOMS
1
ITEM: BOX BOUNDS ss ss ss
26.2265 73.6901
26.2265 73.6901
-0.004 19.8029
ITEM: ATOMS id xs ys zs c_msd_abov[4] 
2881 0.521867 0.521867 1.03808 0.163941 
ITEM: TIMESTEP
6720
ITEM: NUMBER OF ATOMS
1
ITEM: BOX BOUNDS ss ss ss
26.2265 73.6901
26.2265 73.6901
-0.004 19.8029
ITEM: ATOMS id xs ys zs c_msd_abov[4] 
2881 0.519741 0.519741 1.03346 0.145682 
ITEM: TIMESTEP
6800
ITEM: NUMBER OF ATOMS
1
ITEM: BOX BOUNDS ss ss ss
26.2798 73.6668
26.2798 73.6668
-0.004 20.4113
ITEM: ATOMS id xs ys zs c_msd_abov[4] 
2881 0.518762 0.518762 1.00025 0.174912 
ITEM: TIMESTEP
6880
ITEM: NUMBER OF ATOMS
1
ITEM: BOX BOUNDS ss ss ss
26.2798 73.6668
26.2798 73.6668
-0.004 20.4113
ITEM: ATOMS id xs ys zs c_msd_abov[4] 
2881 0.520082 0.520082 1.00899 0.218197 
ITEM: TIMESTEP
6960
ITEM: NUMBER OF ATOMS
1
ITEM: BOX BOUNDS ss ss ss
26.2798 73.6668
26.2798 73.6668
-0.004 20.4113
ITEM: ATOMS id xs ys zs c_msd_abov[4] 
2881 0.520923 0.520923 1.00816 0.186096 
ITEM: TIMESTEP
7040
ITEM: NUMBER OF ATOMS
1
ITEM: BOX BOUNDS ss ss ss
26.2798 73.6668
26.2798 73.6668
-0.004 20.4113
ITEM: ATOMS id xs ys zs c_msd_abov[4] 
2881 0.519803 0.519803 0.997838 0.107117 
ITEM: TIMESTEP
7120
ITEM: NUMBER OF ATOMS
1
ITEM: BOX BOUNDS ss ss ss
26.2798 73.6668
26.2798 73.6668
-0.004 20.4113
ITEM: ATOMS id xs ys zs c_msd_abov[4] 
2881 0.520679 0.520679 0.995403 0.0887484 
ITEM: TIMESTEP
7200
ITEM: NUMBER OF ATOMS
1
ITEM: BOX BOUNDS ss ss ss
26.4048 73.5698
26.4048 73.5698
-0.004 20.2917
ITEM: ATOMS id xs ys zs c_msd_abov[4] 
2881 0.523499 0.523499 0.998354 0.207059 
ITEM: TIMESTEP
7280
ITEM: NUMBER OF ATOMS
1
ITEM: BOX BOUNDS ss ss ss
26.4048 73.5698
26.4048 73.5698
-0.004 20.2917
ITEM: ATOMS id xs ys zs c_msd_abov[4] 
2881 0.522845 0.522845 0.991246 0.301794 
ITEM: TIMESTEP
7360
ITEM: NUMBER OF ATOMS
1
ITEM: BOX BOUNDS ss ss ss
26.4048 73.5698
26.4048 73.5698
-0.004 20.2917
ITEM: ATOMS id xs ys zs c_msd_abov[4] 
2881 0.522317 0.522317 0.984067 0.432648 
ITEM: TIMESTEP
7440
ITEM: NUMBER OF ATOMS
1
ITEM: BOX BOUNDS ss ss ss
26.4048 73.5698
26.4048 73.5698
-0.004 20.2917
ITEM: ATOMS id xs ys zs c_msd_abov[4] 
2881 0.525643 0.525643 0.981406 0.565412 
ITEM: TIMESTEP
7520
ITEM: NUMBER OF ATOMS
1
ITEM: BOX BOUNDS ss ss ss
26.4048 73.5698
26.4048 73.5698
-0.004 20.2917
ITEM: ATOMS id xs ys zs c_msd_abov[4] 
2881 0.52599 0.52599 0.981659 0.573768 
ITEM: TIMESTEP
7600
ITEM: NUMBER OF ATOMS
1
ITEM: BOX BOUNDS ss ss ss
26.4048 73.5698
26.4048 73.5698
-0.004 20.2917
ITEM: ATOMS id xs ys zs c_msd_abov[4] 
2881 0.522598 0.522598 0.983237 0.452838 
ITEM: TIMESTEP
7680
ITEM: NUMBER OF ATOMS
1
ITEM: BOX BOUNDS ss ss ss
26.4048 73.5698
26.4048 73.5698
-0.004 20.2917
ITEM: ATOMS id xs ys zs c_msd_abov[4] 
2881 0.522081 0.522081 0.989212 0.327102 
ITEM: TIMESTEP
7760
ITEM: NUMBER OF ATOMS
1
ITEM: BOX BOUNDS ss ss ss
26.4048 73.5698
26.4048 73.5698
-0.004 20.2917
ITEM: ATOMS id xs ys zs c_msd_abov[4] 
2881 0.520566 0.520566 0.994967 0.208131 
ITEM: TIMESTEP
7840
ITEM: NUMBER OF ATOMS
1
ITEM: BOX BOUNDS ss ss ss
26.4048 73.5698
26.4048 73.5698
-0.004 20.2917
ITEM: ATOMS id xs ys zs c_msd_abov[4] 
2881 0.517874 0.517874 0.995406 0.293393 
ITEM: TIMESTEP
7920
ITEM: NUMBER OF ATOMS
1
ITEM: BOX BOUNDS ss ss ss
26.1591 73.852
26.1591 73.852
-0.004 20.203
ITEM: ATOMS id xs ys zs c_msd_abov[4] 
2881 0.518295 0.518295 0.999683 0.248679 
ITEM: TIMESTEP
8000
ITEM: NUMBER OF ATOMS
1
ITEM: BOX BOUNDS ss ss ss
26.1591 73.852
26.1591 73.852
-0.004 20.203
ITEM: ATOMS id xs ys zs c_msd_abov[4] 
2881 0.520866 0.520866 0.98899 0.414127 
ITEM: TIMESTEP
8080
ITEM: NUMBER OF ATOMS
1
ITEM: BOX BOUNDS ss ss ss
26.1591 73.852
26.1591 73.852
-0.004 20.203
ITEM: ATOMS id xs ys zs c_msd_abov[4] 
2881 0.520081 0.520081 0.975838 0.679986 
ITEM: TIMESTEP
8160
ITEM: NUMBER OF ATOMS
1
ITEM: BOX BOUNDS ss ss ss
26.1591 73.852
26.1591 73.852
-0.004 20.203
ITEM: ATOMS id xs ys zs c_msd_abov[4] 
2881 0.517197 0.517197 0.967566 0.875887 
ITEM: TIMESTEP
8240
ITEM: NUMBER OF ATOMS
1
ITEM: BOX BOUNDS ss ss ss
26.2305 73.686
26.2305 73.686
-0.004 19.4087
ITEM: ATOMS id xs ys zs c_msd_abov[4] 
2881 0.517623 0.517623 0.997799 1.06278 
ITEM: TIMESTEP
8320
ITEM: NUMBER OF ATOMS
1
ITEM: BOX BOUNDS ss ss ss
26.2305 73.686
26.2305 73.686
-0.004 19.4087
ITEM: ATOMS id xs ys zs c_msd_abov[4] 
2881 0.517401 0.517401 0.99697 1.08217 
ITEM: TIMESTEP
8400
ITEM: NUMBER OF ATOMS
1
ITEM: BOX BOUNDS ss ss ss
26.2305 73.686
26.2305 73.686
-0.004 19.4087
ITEM: ATOMS id xs ys zs c_msd_abov[4] 
2881 0.518427 0.518427 1.01241 0.774916 
ITEM: TIMESTEP
8480
ITEM: NUMBER OF ATOMS
1
ITEM: BOX BOUNDS ss ss ss
26.2305 73.686
26.2305 73.686
-0.004 19.4087
ITEM: ATOMS id xs ys zs c_msd_abov[4] 
2881 0.520438 0.520438 1.02217 0.560704 
ITEM: TIMESTEP
8560
ITEM: NUMBER OF ATOMS
1
ITEM: BOX BOUNDS ss ss ss
26.2423 73.7714
26.2423 73.7714
-0.004 19.9078
ITEM: ATOMS id xs ys zs c_msd_abov[4] 
2881 0.522071 0.522071 1.00468 0.405536 
ITEM: TIMESTEP
8640
ITEM: NUMBER OF ATOMS
1
ITEM: BOX BOUNDS ss ss ss
26.2423 73.7714
26.2423 73.7714
-0.004 19.9078
ITEM: ATOMS id xs ys zs c_msd_abov[4] 
2881 0.524846 0.524846 1.01625 0.329744 
ITEM: TIMESTEP
8720
ITEM: NUMBER OF ATOMS
1
ITEM: BOX BOUNDS ss ss ss
26.2423 73.7714
26.2423 73.7714
-0.004 19.9078
ITEM: ATOMS id xs ys zs c_msd_abov[4] 
2881 0.525525 0.525525 1.01534 0.378334 
ITEM: TIMESTEP
8800
ITEM: NUMBER OF ATOMS
1
ITEM: BOX BOUNDS ss ss ss
26.2423 73.7714
26.2423 73.7714
-0.004 19.9078
ITEM: ATOMS id xs ys zs c_msd_abov[4] 
2881 0.523165 0.523165 1.00741 0.380676 
ITEM: TIMESTEP
8880
ITEM: NUMBER OF ATOMS
1
ITEM: BOX BOUNDS ss ss ss
26.2423 73.7714
26.2423 73.7714
-0.004 19.9078
ITEM: ATOMS id xs ys zs c_msd_abov[4] 
2881 0.520914 0.520914 1.01033 0.281366 
ITEM: TIMESTEP
8960
ITEM: NUMBER OF ATOMS
1
ITEM: BOX BOUNDS ss ss ss
26.2423 73.7714
26.2423 73.7714
-0.004 19.9078
ITEM: ATOMS id xs ys zs c_msd_abov[4] 
2881 0.520999 0.520999 1.01113 0.266182 
ITEM: TIMESTEP
9040
ITEM: NUMBER OF ATOMS
1
ITEM: BOX BOUNDS ss ss ss
26.2423 73.7714
26.2423 73.7714
-0.004 19.9078
ITEM: ATOMS id xs ys zs c_msd_abov[4] 
2881 0.521713 0.521713 0.998132 0.528932 
ITEM: TIMESTEP
9120
ITEM: NUMBER OF ATOMS
1
ITEM: BOX BOUNDS ss ss ss
25.9958 73.8904
25.9958 73.8904
-0.004 19.698
ITEM: ATOMS id xs ys zs c_msd_abov[4] 
2881 0.523412 0.523412 0.997048 0.762439 
ITEM: TIMESTEP
9200
ITEM: NUMBER OF ATOMS
1
ITEM: BOX BOUNDS ss ss ss
25.9958 73.8904
25.9958 73.8904
-0.004 19.698
ITEM: ATOMS id xs ys zs c_msd_abov[4] 
2881 0.523782 0.523782 0.98728 0.956469 
ITEM: TIMESTEP
9280
ITEM: NUMBER OF ATOMS
1
ITEM: BOX BOUNDS ss ss ss
25.9958 73.8904
25.9958 73.8904
-0.004 19.698
ITEM: ATOMS id xs ys zs c_msd_abov[4] 
2881 0.52309 0.52309 0.975382 1.18445 
ITEM: TIMESTEP
9360
ITEM: NUMBER OF ATOMS
1
ITEM: BOX BOUNDS ss ss ss
25.9958 73.8904
25.9958 73.8904
-0.004 19.698
ITEM: ATOMS id xs ys zs c_msd_abov[4] 
2881 0.5228 0.5228 0.980809 1.0764 
ITEM: TIMESTEP
9440
ITEM: NUMBER OF ATOMS
1
ITEM: BOX BOUNDS ss ss ss
26.131 73.9395
26.131 73.9395
-0.004 19.4353
ITEM: ATOMS id xs ys zs c_msd_abov[4] 
2881 0.520883 0.520883 1.00243 0.913983 
ITEM: TIMESTEP
9520
ITEM: NUMBER OF ATOMS
1
ITEM: BOX BOUNDS ss ss ss
26.131 73.9395
26.131 73.9395
-0.004 19.4353
ITEM: ATOMS id xs ys zs c_msd_abov[4] 
2881 0.518984 0.518984 1.01372 0.694596 
ITEM: TIMESTEP
9600
ITEM: NUMBER OF ATOMS
1
ITEM: BOX BOUNDS ss ss ss
26.131 73.9395
26.131 73.9395
-0.004 19.4353
ITEM: ATOMS id xs ys zs c_msd_abov[4] 
2881 0.518535 0.518535 1.03362 0.318192 
ITEM: TIMESTEP
9680
ITEM: NUMBER OF ATOMS
1
ITEM: BOX BOUNDS ss ss ss
26.131 73.9395
26.131 73.9395
-0.004 19.4353
ITEM: ATOMS id xs ys zs c_msd_abov[4] 
2881 0.519441 0.519441 1.03973 0.188517 
ITEM: TIMESTEP
9760
ITEM: NUMBER OF ATOMS
1
ITEM: BOX BOUNDS ss ss ss
26.1656 73.9893
26.1656 73.9893
-0.004 20.1296
ITEM: ATOMS id xs ys zs c_msd_abov[4] 
2881 0.519094 0.519094 0.995897 0.347138 
ITEM: TIMESTEP
9840
ITEM: NUMBER OF ATOMS
1
ITEM: BOX BOUNDS ss ss ss
26.1656 73.9893
26.1656 73.9893
-0.004 20.1296
ITEM: ATOMS id xs ys zs c_msd_abov[4] 
2881 0.521062 0.521062 1.00382 0.234639 
ITEM: TIMESTEP
9920
ITEM: NUMBER OF ATOMS
1
ITEM: BOX BOUNDS ss ss ss
26.1656 73.9893
26.1656 73.9893
-0.004 20.1296
ITEM: ATOMS id xs ys zs c_msd_abov[4] 
2881 0.522682 0.522682 1.01387 0.251016 
ITEM: TIMESTEP
10000
ITEM: NUMBER OF ATOMS
1
ITEM: BOX BOUNDS ss ss ss
26.1228 73.9727
26.1228 73.9727
-0.004 20.3459
ITEM: ATOMS id xs ys zs c_msd_abov[4] 
2881 0.521774 0.521774 0.999803 0.156848 
ITEM: TIMESTEP
10080
ITEM: NUMBER OF ATOMS
1
ITEM: BOX BOUNDS ss ss ss
26.1228 73.9727
26.1228 73.9727
-0.004 20.3459
ITEM: ATOMS id xs ys zs c_msd_abov[4] 
2881 0.518117 0.518117 0.994568 0.187326 
ITEM: TIMESTEP
10160
ITEM: NUMBER OF ATOMS
1
ITEM: BOX BOUNDS ss ss ss
26.1228 73.9727
26.1228 73.9727
-0.004 20.3459
ITEM: ATOMS id xs ys zs c_msd_abov[4] 
2881 0.519372 0.519372 1.00058 0.0391812 
ITEM: TIMESTEP
10240
ITEM: NUMBER OF ATOMS
1
ITEM: BOX BOUNDS ss ss ss
26.1228 73.9727
26.1228 73.9727
-0.004 20.3459
ITEM: ATOMS id xs ys zs c_msd_abov[4] 
2881 0.521037 0.521037 0.997647 0.137256 
ITEM: TIMESTEP
10320
ITEM: NUMBER OF ATOMS
1
ITEM: BOX BOUNDS ss ss ss
26.1072 74.2105
26.1072 74.2105
-0.004 20.225
ITEM: ATOMS id xs ys zs c_msd_abov[4] 
2881 0.516578 0.516578 0.999876 0.176259 
ITEM: TIMESTEP
10400
ITEM: NUMBER OF ATOMS
1
ITEM: BOX BOUNDS ss ss ss
26.1072 74.2105
26.1072 74.2105
-0.004 20.225
ITEM: ATOMS id xs ys zs c_msd_abov[4] 
2881 0.515201 0.515201 1.00598 0.142558 
ITEM: TIMESTEP
10480
ITEM: NUMBER OF ATOMS
1
ITEM: BOX BOUNDS ss ss ss
26.1072 74.2105
26.1072 74.2105
-0.004 20.225
ITEM: ATOMS id xs ys zs c_msd_abov[4] 
2881 0.515816 0.515816 1.00836 0.0924801 
ITEM: TIMESTEP
10560
ITEM: NUMBER OF ATOMS
1
ITEM: BOX BOUNDS ss ss ss
26.1072 74.2105
26.1072 74.2105
-0.004 20.225
ITEM: ATOMS id xs ys zs c_msd_abov[4] 
2881 0.515688 0.515688 1.00398 0.134429 
ITEM: TIMESTEP
10640
ITEM: NUMBER OF ATOMS
1
ITEM: BOX BOUNDS ss ss ss
25.9714 74.3934
25.9714 74.3934
-0.004 20.3086
ITEM: ATOMS id xs ys zs c_msd_abov[4] 
2881 0.515332 0.515332 1.00258 0.0912129 
ITEM: TIMESTEP
10720
ITEM: NUMBER OF ATOMS
1
ITEM: BOX BOUNDS ss ss ss
25.9714 74.3934
25.9714 74.3934
-0.004 20.3086
ITEM: ATOMS id xs ys zs c_msd_abov[4] 
2881 0.51748 0.51748 1.00637 0.0760388 
ITEM: TIMESTEP
10800
ITEM: NUMBER OF ATOMS
1
ITEM: BOX BOUNDS ss ss ss
25.9714 74.3934
25.9714 74.3934
-0.004 20.3086
ITEM: ATOMS id xs ys zs c_msd_abov[4] 
2881 0.517932 0.517932 1.00828 0.124483 
ITEM: TIMESTEP
10880
ITEM: NUMBER OF ATOMS
1
ITEM: BOX BOUNDS ss ss ss
25.9714 74.3934
25.9714 74.3934
-0.004 20.3086
ITEM: ATOMS id xs ys zs c_msd_abov[4] 
2881 0.516247 0.516247 1.0078 0.0764174 
ITEM: TIMESTEP
10960
ITEM: NUMBER OF ATOMS
1
ITEM: BOX BOUNDS ss ss ss
25.9714 74.3934
25.9714 74.3934
-0.004 20.3086
ITEM: ATOMS id xs ys zs c_msd_abov[4] 
2881 0.515664 0.515664 0.997939 0.141697 
ITEM: TIMESTEP
11040
ITEM: NUMBER OF ATOMS
1
ITEM: BOX BOUNDS ss ss ss
26.1591 74.1143
26.1591 74.1143
-0.004 20.168
ITEM: ATOMS id xs ys zs c_msd_abov[4] 
2881 0.516753 0.516753 0.992162 0.389301 
ITEM: TIMESTEP
11120
ITEM: NUMBER OF ATOMS
1
ITEM: BOX BOUNDS ss ss ss
26.1591 74.1143
26.1591 74.1143
-0.004 20.168
ITEM: ATOMS id xs ys zs c_msd_abov[4] 
2881 0.516541 0.516541 0.987807 0.47832 
ITEM: TIMESTEP
11200
ITEM: NUMBER OF ATOMS
1
ITEM: BOX BOUNDS ss ss ss
26.1244 73.9022
26.1244 73.9022
-0.004 19.843
ITEM: ATOMS id xs ys zs c_msd_abov[4] 
2881 0.520684 0.520684 0.997146 0.608081 
ITEM: TIMESTEP
11280
ITEM: NUMBER OF ATOMS
1
ITEM: BOX BOUNDS ss ss ss
26.1244 73.9022
26.1244 73.9022
-0.004 19.843
ITEM: ATOMS id xs ys zs c_msd_abov[4] 
2881 0.522368 0.522368 0.983981 0.87967 
ITEM: TIMESTEP
11360
ITEM: NUMBER OF ATOMS
1
ITEM: BOX BOUNDS ss ss ss
26.1244 73.9022
26.1244 73.9022
-0.004 19.843
ITEM: ATOMS id xs ys zs c_msd_abov[4] 
2881 0.52409 0.52409 0.979758 0.985893 
ITEM: TIMESTEP
11440
ITEM: NUMBER OF ATOMS
1
ITEM: BOX BOUNDS ss ss ss
26.1244 73.9022
26.1244 73.9022
-0.004 19.843
ITEM: ATOMS id xs ys zs c_msd_abov[4] 
2881 0.526107 0.526107 0.979168 1.04022 
ITEM: TIMESTEP
11520
ITEM: NUMBER OF ATOMS
1
ITEM: BOX BOUNDS ss ss ss
26.1244 73.9022
26.1244 73.9022
-0.004 19.843
ITEM: ATOMS id xs ys zs c_msd_abov[4] 
2881 0.523663 0.523663 0.980678 0.961082 
ITEM: TIMESTEP
11600
ITEM: NUMBER OF ATOMS
1
ITEM: BOX BOUNDS ss ss ss
26.0999 73.9072
26.0999 73.9072
-0.004 19.4985
ITEM: ATOMS id xs ys zs c_msd_abov[4] 
2881 0.520074 0.520074 1.00219 0.853285 
ITEM: TIMESTEP
11680
ITEM: NUMBER OF ATOMS
1
ITEM: BOX BOUNDS ss ss ss
26.0999 73.9072
26.0999 73.9072
-0.004 19.4985
ITEM: ATOMS id xs ys zs c_msd_abov[4] 
2881 0.520278 0.520278 1.00675 0.763987 
ITEM: TIMESTEP
11760
ITEM: NUMBER OF ATOMS
1
ITEM: BOX BOUNDS ss ss ss
26.0999 73.9072
26.0999 73.9072
-0.004 19.4985
ITEM: ATOMS id xs ys zs c_msd_abov[4] 
2881 0.520327 0.520327 1.01052 0.690397 
ITEM: TIMESTEP
11840
ITEM: NUMBER OF ATOMS
1
ITEM: BOX BOUNDS ss ss ss
26.0999 73.9072
26.0999 73.9072
-0.004 19.4985
ITEM: ATOMS id xs ys zs c_msd_abov[4] 
2881 0.520178 0.520178 1.01713 0.561899 
ITEM: TIMESTEP
11920
ITEM: NUMBER OF ATOMS
1
ITEM: BOX BOUNDS ss ss ss
25.9114 73.8479
25.9114 73.8479
-0.004 19.8958
ITEM: ATOMS id xs ys zs c_msd_abov[4] 
2881 0.52528 0.52528 0.99976 0.525045 
ITEM: TIMESTEP
12000
ITEM: NUMBER OF ATOMS
1
ITEM: BOX BOUNDS ss ss ss
25.9114 73.8479
25.9114 73.8479
-0.004 19.8958
ITEM: ATOMS id xs ys zs c_msd_abov[4] 
2881 0.526396 0.526396 1.00145 0.521107 
ITEM: TIMESTEP
12080
ITEM: NUMBER OF ATOMS
1
ITEM: BOX BOUNDS ss ss ss
25.9114 73.8479
25.9114 73.8479
-0.004 19.8958
ITEM: ATOMS id xs ys zs c_msd_abov[4] 
2881 0.524009 0.524009 1.01016 0.302964 
ITEM: TIMESTEP
12160
ITEM: NUMBER OF ATOMS
1
ITEM: BOX BOUNDS ss ss ss
25.9114 73.8479
25.9114 73.8479
-0.004 19.8958