ITEM: TIMESTEP
0
ITEM: NUMBER OF ATOMS
1
ITEM: BOX BOUNDS ss ss ss
26.5002 73.4304
26.5002 73.4304
-0.004 20.398
ITEM: ATOMS id xs ys zs c_msd_abov[4] 
2881 0.521728 0.521728 0.999804 0 
ITEM: TIMESTEP
80
ITEM: NUMBER OF ATOMS
1
ITEM: BOX BOUNDS ss ss ss
26.5002 73.4304
26.5002 73.4304
-0.004 20.398
ITEM: ATOMS id xs ys zs c_msd_abov[4] 
2881 0.521728 0.521728 0.98685 0.26429 
ITEM: TIMESTEP
160
ITEM: NUMBER OF ATOMS
1
ITEM: BOX BOUNDS ss ss ss
26.5002 73.4304
26.5002 73.4304
-0.004 20.398
ITEM: ATOMS id xs ys zs c_msd_abov[4] 
2881 0.521728 0.521728 0.970171 0.60457 
ITEM: TIMESTEP
240
ITEM: NUMBER OF ATOMS
1
ITEM: BOX BOUNDS ss ss ss
26.5002 73.4304
26.5002 73.4304
-0.004 20.398
ITEM: ATOMS id xs ys zs c_msd_abov[4] 
2881 0.521728 0.521728 0.969448 0.619325 
ITEM: TIMESTEP
320
ITEM: NUMBER OF ATOMS
1
ITEM: BOX BOUNDS ss ss ss
26.4784 73.4522
26.4784 73.4522
-0.004 19.5865
ITEM: ATOMS id xs ys zs c_msd_abov[4] 
2881 0.521708 0.521708 0.99838 0.839226 
ITEM: TIMESTEP
400
ITEM: NUMBER OF ATOMS
1
ITEM: BOX BOUNDS ss ss ss
26.4784 73.4522
26.4784 73.4522
-0.004 19.5865
ITEM: ATOMS id xs ys zs c_msd_abov[4] 
2881 0.521709 0.521709 0.987051 1.06117 
ITEM: TIMESTEP
480
ITEM: NUMBER OF ATOMS
1
ITEM: BOX BOUNDS ss ss ss
26.4784 73.4522
26.4784 73.4522
-0.004 19.5865
ITEM: ATOMS id xs ys zs c_msd_abov[4] 
2881 0.521712 0.521712 0.992547 0.953506 
ITEM: TIMESTEP
560
ITEM: NUMBER OF ATOMS
1
ITEM: BOX BOUNDS ss ss ss
26.4784 73.4522
26.4784 73.4522
-0.004 19.5865
ITEM: ATOMS id xs ys zs c_msd_abov[4] 
2881 0.521721 0.521721 0.993136 0.941955 
ITEM: TIMESTEP
640
ITEM: NUMBER OF ATOMS
1
ITEM: BOX BOUNDS ss ss ss
26.4784 73.4522
26.4784 73.4522
-0.004 19.5865
ITEM: ATOMS id xs ys zs c_msd_abov[4] 
2881 0.521741 0.521741 0.993364 0.937501 
ITEM: TIMESTEP
720
ITEM: NUMBER OF ATOMS
1
ITEM: BOX BOUNDS ss ss ss
26.4784 73.4522
26.4784 73.4522
-0.004 19.5865
ITEM: ATOMS id xs ys zs c_msd_abov[4] 
2881 0.521746 0.521746 1.00153 0.777615 
ITEM: TIMESTEP
800
ITEM: NUMBER OF ATOMS
1
ITEM: BOX BOUNDS ss ss ss
26.4784 73.4522
26.4784 73.4522
-0.004 19.5865
ITEM: ATOMS id xs ys zs c_msd_abov[4] 
2881 0.521713 0.521713 1.00365 0.735957 
ITEM: TIMESTEP
880
ITEM: NUMBER OF ATOMS
1
ITEM: BOX BOUNDS ss ss ss
26.4784 73.4522
26.4784 73.4522
-0.004 19.5865
ITEM: ATOMS id xs ys zs c_msd_abov[4] 
2881 0.521584 0.521584 1.00682 0.674003 
ITEM: TIMESTEP
960
ITEM: NUMBER OF ATOMS
1
ITEM: BOX BOUNDS ss ss ss
26.4784 73.4522
26.4784 73.4522
-0.004 19.5865
ITEM: ATOMS id xs ys zs c_msd_abov[4] 
2881 0.52142 0.52142 1.01279 0.55725 
ITEM: TIMESTEP
1040
ITEM: NUMBER OF ATOMS
1
ITEM: BOX BOUNDS ss ss ss
26.4784 73.4522
26.4784 73.4522
-0.004 19.5865
ITEM: ATOMS id xs ys zs c_msd_abov[4] 
2881 0.521304 0.521304 1.01398 0.534385 
ITEM: TIMESTEP
1120
ITEM: NUMBER OF ATOMS
1
ITEM: BOX BOUNDS ss ss ss
26.4784 73.4522
26.4784 73.4522
-0.004 19.5865
ITEM: ATOMS id xs ys zs c_msd_abov[4] 
2881 0.521282 0.521282 1.02527 0.313676 
ITEM: TIMESTEP
1200
ITEM: NUMBER OF ATOMS
1
ITEM: BOX BOUNDS ss ss ss
26.4784 73.4522
26.4784 73.4522
-0.004 19.5865
ITEM: ATOMS id xs ys zs c_msd_abov[4] 
2881 0.521297 0.521297 1.03596 0.106507 
ITEM: TIMESTEP
1280
ITEM: NUMBER OF ATOMS
1
ITEM: BOX BOUNDS ss ss ss
26.4191 73.5131
26.4191 73.5131
-0.004 20.2704
ITEM: ATOMS id xs ys zs c_msd_abov[4] 
2881 0.521237 0.521237 0.997754 0.171206 
ITEM: TIMESTEP
1360
ITEM: NUMBER OF ATOMS
1
ITEM: BOX BOUNDS ss ss ss
26.4191 73.5131
26.4191 73.5131
-0.004 20.2704
ITEM: ATOMS id xs ys zs c_msd_abov[4] 
2881 0.521312 0.521312 1.00512 0.0291867 
ITEM: TIMESTEP
1440
ITEM: NUMBER OF ATOMS
1
ITEM: BOX BOUNDS ss ss ss
26.4191 73.5131
26.4191 73.5131
-0.004 20.2704
ITEM: ATOMS id xs ys zs c_msd_abov[4] 
2881 0.521327 0.521327 1.01741 0.230266 
ITEM: TIMESTEP
1520
ITEM: NUMBER OF ATOMS
1
ITEM: BOX BOUNDS ss ss ss
26.4191 73.5131
26.4191 73.5131
-0.004 20.2704
ITEM: ATOMS id xs ys zs c_msd_abov[4] 
2881 0.521276 0.521276 1.01498 0.181779 
ITEM: TIMESTEP
1600
ITEM: NUMBER OF ATOMS
1
ITEM: BOX BOUNDS ss ss ss
26.4191 73.5131
26.4191 73.5131
-0.004 20.2704
ITEM: ATOMS id xs ys zs c_msd_abov[4] 
2881 0.521363 0.521363 1.01609 0.203454 
ITEM: TIMESTEP
1680
ITEM: NUMBER OF ATOMS
1
ITEM: BOX BOUNDS ss ss ss
26.4191 73.5131
26.4191 73.5131
-0.004 20.2704
ITEM: ATOMS id xs ys zs c_msd_abov[4] 
2881 0.521593 0.521593 1.01924 0.26645 
ITEM: TIMESTEP
1760
ITEM: NUMBER OF ATOMS
1
ITEM: BOX BOUNDS ss ss ss
26.4191 73.5131
26.4191 73.5131
-0.004 20.2704
ITEM: ATOMS id xs ys zs c_msd_abov[4] 
2881 0.521868 0.521868 1.00714 0.0263077 
ITEM: TIMESTEP
1840
ITEM: NUMBER OF ATOMS
1
ITEM: BOX BOUNDS ss ss ss
26.4191 73.5131
26.4191 73.5131
-0.004 20.2704
ITEM: ATOMS id xs ys zs c_msd_abov[4] 
2881 0.522326 0.522326 0.997976 0.170955 
ITEM: TIMESTEP
1920
ITEM: NUMBER OF ATOMS
1
ITEM: BOX BOUNDS ss ss ss
26.4191 73.5131
26.4191 73.5131
-0.004 20.2704
ITEM: ATOMS id xs ys zs c_msd_abov[4] 
2881 0.52253 0.52253 0.998383 0.167361 
ITEM: TIMESTEP
2000
ITEM: NUMBER OF ATOMS
1
ITEM: BOX BOUNDS ss ss ss
26.4112 73.5141
26.4112 73.5141
-0.004 20.1751
ITEM: ATOMS id xs ys zs c_msd_abov[4] 
2881 0.522476 0.522476 0.992805 0.367736 
ITEM: TIMESTEP
2080
ITEM: NUMBER OF ATOMS
1
ITEM: BOX BOUNDS ss ss ss
26.4112 73.5141
26.4112 73.5141
-0.004 20.1751
ITEM: ATOMS id xs ys zs c_msd_abov[4] 
2881 0.522196 0.522196 0.981839 0.586315 
ITEM: TIMESTEP
2160
ITEM: NUMBER OF ATOMS
1
ITEM: BOX BOUNDS ss ss ss
26.4112 73.5141
26.4112 73.5141
-0.004 20.1751
ITEM: ATOMS id xs ys zs c_msd_abov[4] 
2881 0.521924 0.521924 0.977535 0.672414 
ITEM: TIMESTEP
2240
ITEM: NUMBER OF ATOMS
1
ITEM: BOX BOUNDS ss ss ss
26.4112 73.5141
26.4112 73.5141
-0.004 20.1751
ITEM: ATOMS id xs ys zs c_msd_abov[4] 
2881 0.52143 0.52143 0.967493 0.875095 
ITEM: TIMESTEP
2320
ITEM: NUMBER OF ATOMS
1
ITEM: BOX BOUNDS ss ss ss
26.4112 73.5141
26.4112 73.5141
-0.004 20.1751
ITEM: ATOMS id xs ys zs c_msd_abov[4] 
2881 0.520999 0.520999 0.965975 0.906759 
ITEM: TIMESTEP
2400
ITEM: NUMBER OF ATOMS
1
ITEM: BOX BOUNDS ss ss ss
26.4112 73.5141
26.4112 73.5141
-0.004 20.1751
ITEM: ATOMS id xs ys zs c_msd_abov[4] 
2881 0.521525 0.521525 0.971182 0.800541 
ITEM: TIMESTEP
2480
ITEM: NUMBER OF ATOMS
1
ITEM: BOX BOUNDS ss ss ss
26.4112 73.5141
26.4112 73.5141
-0.004 20.1751
ITEM: ATOMS id xs ys zs c_msd_abov[4] 
2881 0.522092 0.522092 0.962333 0.979373 
ITEM: TIMESTEP
2560
ITEM: NUMBER OF ATOMS
1
ITEM: BOX BOUNDS ss ss ss
26.4112 73.5141
26.4112 73.5141
-0.004 20.1751
ITEM: ATOMS id xs ys zs c_msd_abov[4] 
2881 0.522567 0.522567 0.954132 1.14595 
ITEM: TIMESTEP
2640
ITEM: NUMBER OF ATOMS
1
ITEM: BOX BOUNDS ss ss ss
26.4112 73.5141
26.4112 73.5141
-0.004 20.1751
ITEM: ATOMS id xs ys zs c_msd_abov[4] 
2881 0.523227 0.523227 0.960023 1.03065 
ITEM: TIMESTEP
2720
ITEM: NUMBER OF ATOMS
1
ITEM: BOX BOUNDS ss ss ss
26.4112 73.5141
26.4112 73.5141
-0.004 20.1751
ITEM: ATOMS id xs ys zs c_msd_abov[4] 
2881 0.523181 0.523181 0.961857 0.993503 
ITEM: TIMESTEP
2800
ITEM: NUMBER OF ATOMS
1
ITEM: BOX BOUNDS ss ss ss
26.4112 73.5141
26.4112 73.5141
-0.004 20.1751
ITEM: ATOMS id xs ys zs c_msd_abov[4] 
2881 0.522158 0.522158 0.963828 0.949331 
ITEM: TIMESTEP
2880
ITEM: NUMBER OF ATOMS
1
ITEM: BOX BOUNDS ss ss ss
26.4112 73.5141
26.4112 73.5141
-0.004 20.1751
ITEM: ATOMS id xs ys zs c_msd_abov[4] 
2881 0.52126 0.52126 0.96763 0.872635 
ITEM: TIMESTEP
2960
ITEM: NUMBER OF ATOMS
1
ITEM: BOX BOUNDS ss ss ss
26.4112 73.5141
26.4112 73.5141
-0.004 20.1751
ITEM: ATOMS id xs ys zs c_msd_abov[4] 
2881 0.520602 0.520602 0.965627 0.915502 
ITEM: TIMESTEP
3040
ITEM: NUMBER OF ATOMS
1
ITEM: BOX BOUNDS ss ss ss
26.4112 73.5141
26.4112 73.5141
-0.004 20.1751
ITEM: ATOMS id xs ys zs c_msd_abov[4] 
2881 0.520635 0.520635 0.971514 0.796945 
ITEM: TIMESTEP
3120
ITEM: NUMBER OF ATOMS
1
ITEM: BOX BOUNDS ss ss ss
26.4112 73.5141
26.4112 73.5141
-0.004 20.1751
ITEM: ATOMS id xs ys zs c_msd_abov[4] 
2881 0.52094 0.52094 0.981561 0.593215 
ITEM: TIMESTEP
3200
ITEM: NUMBER OF ATOMS
1
ITEM: BOX BOUNDS ss ss ss
26.4112 73.5141
26.4112 73.5141
-0.004 20.1751
ITEM: ATOMS id xs ys zs c_msd_abov[4] 
2881 0.520434 0.520434 0.980234 0.623567 
ITEM: TIMESTEP
3280
ITEM: NUMBER OF ATOMS
1
ITEM: BOX BOUNDS ss ss ss
26.395 73.5348
26.395 73.5348
-0.004 19.7599
ITEM: ATOMS id xs ys zs c_msd_abov[4] 
2881 0.519275 0.519275 1.00359 0.584815 
ITEM: TIMESTEP
3360
ITEM: NUMBER OF ATOMS
1
ITEM: BOX BOUNDS ss ss ss
26.395 73.5348
26.395 73.5348
-0.004 19.7599
ITEM: ATOMS id xs ys zs c_msd_abov[4] 
2881 0.519672 0.519672 1.01821 0.303939 
ITEM: TIMESTEP
3440
ITEM: NUMBER OF ATOMS
1
ITEM: BOX BOUNDS ss ss ss
26.395 73.5348
26.395 73.5348
-0.004 19.7599
ITEM: ATOMS id xs ys zs c_msd_abov[4] 
2881 0.520745 0.520745 1.02297 0.189733 
ITEM: TIMESTEP
3520
ITEM: NUMBER OF ATOMS
1
ITEM: BOX BOUNDS ss ss ss
26.395 73.5348
26.395 73.5348
-0.004 19.7599
ITEM: ATOMS id xs ys zs c_msd_abov[4] 
2881 0.521502 0.521502 1.02632 0.114227 
ITEM: TIMESTEP
3600
ITEM: NUMBER OF ATOMS
1
ITEM: BOX BOUNDS ss ss ss
26.395 73.5348
26.395 73.5348
-0.004 19.7599
ITEM: ATOMS id xs ys zs c_msd_abov[4] 
2881 0.521567 0.521567 1.02524 0.135292 
ITEM: TIMESTEP
3680
ITEM: NUMBER OF ATOMS
1
ITEM: BOX BOUNDS ss ss ss
26.395 73.5348
26.395 73.5348
-0.004 19.7599
ITEM: ATOMS id xs ys zs c_msd_abov[4] 
2881 0.52118 0.52118 1.01283 0.381771 
ITEM: TIMESTEP
3760
ITEM: NUMBER OF ATOMS
1
ITEM: BOX BOUNDS ss ss ss
26.395 73.5348
26.395 73.5348
-0.004 19.7599
ITEM: ATOMS id xs ys zs c_msd_abov[4] 
2881 0.520387 0.520387 1.01074 0.429969 
ITEM: TIMESTEP
3840
ITEM: NUMBER OF ATOMS
1
ITEM: BOX BOUNDS ss ss ss
26.2213 73.6897
26.2213 73.6897
-0.004 20.0407
ITEM: ATOMS id xs ys zs c_msd_abov[4] 
2881 0.520444 0.520444 1.00304 0.304168 
ITEM: TIMESTEP
3920
ITEM: NUMBER OF ATOMS
1
ITEM: BOX BOUNDS ss ss ss
26.2213 73.6897
26.2213 73.6897
-0.004 20.0407
ITEM: ATOMS id xs ys zs c_msd_abov[4] 
2881 0.521255 0.521255 1.004 0.274617 
ITEM: TIMESTEP
4000
ITEM: NUMBER OF ATOMS
1
ITEM: BOX BOUNDS ss ss ss
26.2213 73.6897
26.2213 73.6897
-0.004 20.0407
ITEM: ATOMS id xs ys zs c_msd_abov[4] 
2881 0.522452 0.522452 1.00201 0.317188 
ITEM: TIMESTEP
4080
ITEM: NUMBER OF ATOMS
1
ITEM: BOX BOUNDS ss ss ss
26.2213 73.6897
26.2213 73.6897
-0.004 20.0407
ITEM: ATOMS id xs ys zs c_msd_abov[4] 
2881 0.523471 0.523471 0.995737 0.454824 
ITEM: TIMESTEP
4160
ITEM: NUMBER OF ATOMS
1
ITEM: BOX BOUNDS ss ss ss
26.2213 73.6897
26.2213 73.6897
-0.004 20.0407
ITEM: ATOMS id xs ys zs c_msd_abov[4] 
2881 0.523592 0.523592 0.992125 0.526934 
ITEM: TIMESTEP
4240
ITEM: NUMBER OF ATOMS
1
ITEM: BOX BOUNDS ss ss ss
26.2213 73.6897
26.2213 73.6897
-0.004 20.0407
ITEM: ATOMS id xs ys zs c_msd_abov[4] 
2881 0.523738 0.523738 0.995406 0.466209 
ITEM: TIMESTEP
4320
ITEM: NUMBER OF ATOMS
1
ITEM: BOX BOUNDS ss ss ss
26.2213 73.6897
26.2213 73.6897
-0.004 20.0407
ITEM: ATOMS id xs ys zs c_msd_abov[4] 
2881 0.524243 0.524243 0.997467 0.439024 
ITEM: TIMESTEP
4400
ITEM: NUMBER OF ATOMS
1
ITEM: BOX BOUNDS ss ss ss
26.2213 73.6897
26.2213 73.6897
-0.004 20.0407
ITEM: ATOMS id xs ys zs c_msd_abov[4] 
2881 0.524619 0.524619 0.999658 0.410445 
ITEM: TIMESTEP
4480
ITEM: NUMBER OF ATOMS
1
ITEM: BOX BOUNDS ss ss ss
26.2213 73.6897
26.2213 73.6897
-0.004 20.0407
ITEM: ATOMS id xs ys zs c_msd_abov[4] 
2881 0.524397 0.524397 1.00241 0.355159 
ITEM: TIMESTEP
4560
ITEM: NUMBER OF ATOMS
1
ITEM: BOX BOUNDS ss ss ss
26.2213 73.6897
26.2213 73.6897
-0.004 20.0407
ITEM: ATOMS id xs ys zs c_msd_abov[4] 
2881 0.523382 0.523382 1.00472 0.282635 
ITEM: TIMESTEP
4640
ITEM: NUMBER OF ATOMS
1
ITEM: BOX BOUNDS ss ss ss
26.4399 73.4878
26.4399 73.4878
-0.004 20.2105
ITEM: ATOMS id xs ys zs c_msd_abov[4] 
2881 0.522196 0.522196 1.00291 0.128934 
ITEM: TIMESTEP
4720
ITEM: NUMBER OF ATOMS
1
ITEM: BOX BOUNDS ss ss ss
26.4399 73.4878
26.4399 73.4878
-0.004 20.2105
ITEM: ATOMS id xs ys zs c_msd_abov[4] 
2881 0.521658 0.521658 1.00808 0.0203034 
ITEM: TIMESTEP
4800
ITEM: NUMBER OF ATOMS
1
ITEM: BOX BOUNDS ss ss ss
26.4399 73.4878
26.4399 73.4878
-0.004 20.2105
ITEM: ATOMS id xs ys zs c_msd_abov[4] 
2881 0.52181 0.52181 1.00379 0.107117 
ITEM: TIMESTEP
4880
ITEM: NUMBER OF ATOMS
1
ITEM: BOX BOUNDS ss ss ss
26.3292 73.6482
26.3292 73.6482
-0.004 20.2345
ITEM: ATOMS id xs ys zs c_msd_abov[4] 
2881 0.520899 0.520899 0.99867 0.186655 
ITEM: TIMESTEP
4960
ITEM: NUMBER OF ATOMS
1
ITEM: BOX BOUNDS ss ss ss
26.3292 73.6482
26.3292 73.6482
-0.004 20.2345
ITEM: ATOMS id xs ys zs c_msd_abov[4] 
2881 0.519063 0.519063 0.999717 0.212247 
ITEM: TIMESTEP
5040
ITEM: NUMBER OF ATOMS
1
ITEM: BOX BOUNDS ss ss ss
26.3292 73.6482
26.3292 73.6482
-0.004 20.2345
ITEM: ATOMS id xs ys zs c_msd_abov[4] 
2881 0.517396 0.517396 0.99448 0.365357 
ITEM: TIMESTEP
5120
ITEM: NUMBER OF ATOMS
1
ITEM: BOX BOUNDS ss ss ss
26.3292 73.6482
26.3292 73.6482
-0.004 20.2345
ITEM: ATOMS id xs ys zs c_msd_abov[4] 
2881 0.517329 0.517329 0.989508 0.447685 
ITEM: TIMESTEP
5200
ITEM: NUMBER OF ATOMS
1
ITEM: BOX BOUNDS ss ss ss
26.3292 73.6482
26.3292 73.6482
-0.004 20.2345
ITEM: ATOMS id xs ys zs c_msd_abov[4] 
2881 0.518542 0.518542 0.986983 0.455098 
ITEM: TIMESTEP
5280
ITEM: NUMBER OF ATOMS
1
ITEM: BOX BOUNDS ss ss ss
26.3292 73.6482
26.3292 73.6482
-0.004 20.2345
ITEM: ATOMS id xs ys zs c_msd_abov[4] 
2881 0.519961 0.519961 0.98095 0.549888 
ITEM: TIMESTEP
5360
ITEM: NUMBER OF ATOMS
1
ITEM: BOX BOUNDS ss ss ss
26.3292 73.6482
26.3292 73.6482
-0.004 20.2345
ITEM: ATOMS id xs ys zs c_msd_abov[4] 
2881 0.521367 0.521367 0.981946 0.525254 
ITEM: TIMESTEP
5440
ITEM: NUMBER OF ATOMS
1
ITEM: BOX BOUNDS ss ss ss
26.3292 73.6482
26.3292 73.6482
-0.004 20.2345
ITEM: ATOMS id xs ys zs c_msd_abov[4] 
2881 0.522562 0.522562 0.981341 0.546473 
ITEM: TIMESTEP
5520
ITEM: NUMBER OF ATOMS
1
ITEM: BOX BOUNDS ss ss ss
26.3292 73.6482
26.3292 73.6482
-0.004 20.2345
ITEM: ATOMS id xs ys zs c_msd_abov[4] 
2881 0.523591 0.523591 0.968078 0.823186 
ITEM: TIMESTEP
5600
ITEM: NUMBER OF ATOMS
1
ITEM: BOX BOUNDS ss ss ss
26.2824 73.6406
26.2824 73.6406
-0.004 19.5549
ITEM: ATOMS id xs ys zs c_msd_abov[4] 
2881 0.523941 0.523941 0.994631 0.95696 
ITEM: TIMESTEP
5680
ITEM: NUMBER OF ATOMS
1
ITEM: BOX BOUNDS ss ss ss
26.2824 73.6406
26.2824 73.6406
-0.004 19.5549
ITEM: ATOMS id xs ys zs c_msd_abov[4] 
2881 0.521403 0.521403 1.00176 0.804827 
ITEM: TIMESTEP
5760
ITEM: NUMBER OF ATOMS
1
ITEM: BOX BOUNDS ss ss ss
26.2824 73.6406
26.2824 73.6406
-0.004 19.5549
ITEM: ATOMS id xs ys zs c_msd_abov[4] 
2881 0.520122 0.520122 1.00059 0.833643 
ITEM: TIMESTEP
5840
ITEM: NUMBER OF ATOMS
1
ITEM: BOX BOUNDS ss ss ss
26.2824 73.6406
26.2824 73.6406
-0.004 19.5549
ITEM: ATOMS id xs ys zs c_msd_abov[4] 
2881 0.521042 0.521042 0.988381 1.06708 
ITEM: TIMESTEP
5920
ITEM: NUMBER OF ATOMS
1
ITEM: BOX BOUNDS ss ss ss
26.2759 73.6289
26.2759 73.6289
-0.004 19.2555
ITEM: ATOMS id xs ys zs c_msd_abov[4] 
2881 0.521314 0.521314 0.995331 1.22888 
ITEM: TIMESTEP
6000
ITEM: NUMBER OF ATOMS
1
ITEM: BOX BOUNDS ss ss ss
26.2759 73.6289
26.2759 73.6289
-0.004 19.2555
ITEM: ATOMS id xs ys zs c_msd_abov[4] 
2881 0.521018 0.521018 0.989048 1.35049 
ITEM: TIMESTEP
6080
ITEM: NUMBER OF ATOMS
1
ITEM: BOX BOUNDS ss ss ss
26.2759 73.6289
26.2759 73.6289
-0.004 19.2555
ITEM: ATOMS id xs ys zs c_msd_abov[4] 
2881 0.522561 0.522561 0.990127 1.32963 
ITEM: TIMESTEP
6160
ITEM: NUMBER OF ATOMS
1
ITEM: BOX BOUNDS ss ss ss
26.2759 73.6289
26.2759 73.6289
-0.004 19.2555
ITEM: ATOMS id xs ys zs c_msd_abov[4] 
2881 0.522493 0.522493 0.997223 1.19289 
ITEM: TIMESTEP
6240
ITEM: NUMBER OF ATOMS
1
ITEM: BOX BOUNDS ss ss ss
26.2759 73.6289
26.2759 73.6289
-0.004 19.2555
ITEM: ATOMS id xs ys zs c_msd_abov[4] 
2881 0.522207 0.522207 1.00764 0.991689 
ITEM: TIMESTEP
6320
ITEM: NUMBER OF ATOMS
1
ITEM: BOX BOUNDS ss ss ss
26.2759 73.6289
26.2759 73.6289
-0.004 19.2555
ITEM: ATOMS id xs ys zs c_msd_abov[4] 
2881 0.523103 0.523103 1.02662 0.631751 
ITEM: TIMESTEP
6400
ITEM: NUMBER OF ATOMS
1
ITEM: BOX BOUNDS ss ss ss
26.2759 73.6289
26.2759 73.6289
-0.004 19.2555
ITEM: ATOMS id xs ys zs c_msd_abov[4] 
2881 0.524139 0.524139 1.04075 0.38664 
ITEM: TIMESTEP
6480
ITEM: NUMBER OF ATOMS
1
ITEM: BOX BOUNDS ss ss ss
26.2759 73.6289
26.2759 73.6289
-0.004 19.2555
ITEM: ATOMS id xs ys zs c_msd_abov[4] 
2881 0.524883 0.524883 1.04663 0.316713 
ITEM: TIMESTEP
6560
ITEM: NUMBER OF ATOMS
1
ITEM: BOX BOUNDS ss ss ss
26.2678 73.6807
26.2678 73.6807
-0.004 20.2296
ITEM: ATOMS id xs ys zs c_msd_abov[4] 
2881 0.523852 0.523852 1.00712 0.171146 
ITEM: TIMESTEP
6640
ITEM: NUMBER OF ATOMS
1
ITEM: BOX BOUNDS ss ss ss
26.2678 73.6807
26.2678 73.6807
-0.004 20.2296
ITEM: ATOMS id xs ys zs c_msd_abov[4] 
2881 0.521668 0.521668 1.01649 0.171014 
ITEM: TIMESTEP
6720
ITEM: NUMBER OF ATOMS
1
ITEM: BOX BOUNDS ss ss ss
26.2678 73.6807
26.2678 73.6807
-0.004 20.2296
ITEM: ATOMS id xs ys zs c_msd_abov[4] 
2881 0.519496 0.519496 1.01227 0.148179 
ITEM: TIMESTEP
6800
ITEM: NUMBER OF ATOMS
1
ITEM: BOX BOUNDS ss ss ss
26.2678 73.6807
26.2678 73.6807
-0.004 20.2296
ITEM: ATOMS id xs ys zs c_msd_abov[4] 
2881 0.518654 0.518654 1.01004 0.182763 
ITEM: TIMESTEP
6880
ITEM: NUMBER OF ATOMS
1
ITEM: BOX BOUNDS ss ss ss
26.2678 73.6807
26.2678 73.6807
-0.004 20.2296
ITEM: ATOMS id xs ys zs c_msd_abov[4] 
2881 0.519849 0.519849 1.01928 0.246282 
ITEM: TIMESTEP
6960
ITEM: NUMBER OF ATOMS
1
ITEM: BOX BOUNDS ss ss ss
26.2678 73.6807
26.2678 73.6807
-0.004 20.2296
ITEM: ATOMS id xs ys zs c_msd_abov[4] 
2881 0.520812 0.520812 1.01874 0.217375 
ITEM: TIMESTEP
7040
ITEM: NUMBER OF ATOMS
1
ITEM: BOX BOUNDS ss ss ss
26.34 73.5821
26.34 73.5821
-0.004 20.569
ITEM: ATOMS id xs ys zs c_msd_abov[4] 
2881 0.520031 0.520031 0.991565 0.109777 
ITEM: TIMESTEP
7120
ITEM: NUMBER OF ATOMS
1
ITEM: BOX BOUNDS ss ss ss
26.34 73.5821
26.34 73.5821
-0.004 20.569
ITEM: ATOMS id xs ys zs c_msd_abov[4] 
2881 0.520616 0.520616 0.989009 0.0872545 
ITEM: TIMESTEP
7200
ITEM: NUMBER OF ATOMS
1
ITEM: BOX BOUNDS ss ss ss
26.34 73.5821
26.34 73.5821
-0.004 20.569
ITEM: ATOMS id xs ys zs c_msd_abov[4] 
2881 0.52382 0.52382 0.986576 0.175517 
ITEM: TIMESTEP
7280
ITEM: NUMBER OF ATOMS
1
ITEM: BOX BOUNDS ss ss ss
26.3995 73.7286
26.3995 73.7286
-0.004 20.1928
ITEM: ATOMS id xs ys zs c_msd_abov[4] 
2881 0.521249 0.521249 0.997512 0.278596 
ITEM: TIMESTEP
7360
ITEM: NUMBER OF ATOMS
1
ITEM: BOX BOUNDS ss ss ss
26.3995 73.7286
26.3995 73.7286
-0.004 20.1928
ITEM: ATOMS id xs ys zs c_msd_abov[4] 
2881 0.520336 0.520336 0.989651 0.414438 
ITEM: TIMESTEP
7440
ITEM: NUMBER OF ATOMS
1
ITEM: BOX BOUNDS ss ss ss
26.3995 73.7286
26.3995 73.7286
-0.004 20.1928
ITEM: ATOMS id xs ys zs c_msd_abov[4] 
2881 0.523725 0.523725 0.987654 0.53348 
ITEM: TIMESTEP
7520
ITEM: NUMBER OF ATOMS
1
ITEM: BOX BOUNDS ss ss ss
26.3995 73.7286
26.3995 73.7286
-0.004 20.1928
ITEM: ATOMS id xs ys zs c_msd_abov[4] 
2881 0.524678 0.524678 0.987577 0.571414 
ITEM: TIMESTEP
7600
ITEM: NUMBER OF ATOMS
1
ITEM: BOX BOUNDS ss ss ss
26.3995 73.7286
26.3995 73.7286
-0.004 20.1928
ITEM: ATOMS id xs ys zs c_msd_abov[4] 
2881 0.520985 0.520985 0.988907 0.437374 
ITEM: TIMESTEP
7680
ITEM: NUMBER OF ATOMS
1
ITEM: BOX BOUNDS ss ss ss
26.3995 73.7286
26.3995 73.7286
-0.004 20.1928
ITEM: ATOMS id xs ys zs c_msd_abov[4] 
2881 0.520015 0.520015 0.994641 0.311701 
ITEM: TIMESTEP
7760
ITEM: NUMBER OF ATOMS
1
ITEM: BOX BOUNDS ss ss ss
26.2065 73.8913
26.2065 73.8913
-0.004 20.1438
ITEM: ATOMS id xs ys zs c_msd_abov[4] 
2881 0.519078 0.519078 1.00282 0.197009 
ITEM: TIMESTEP
7840
ITEM: NUMBER OF ATOMS
1
ITEM: BOX BOUNDS ss ss ss
26.2065 73.8913
26.2065 73.8913
-0.004 20.1438
ITEM: ATOMS id xs ys zs c_msd_abov[4] 
2881 0.516441 0.516441 1.00393 0.27481 
ITEM: TIMESTEP
7920
ITEM: NUMBER OF ATOMS
1
ITEM: BOX BOUNDS ss ss ss
26.2065 73.8913
26.2065 73.8913
-0.004 20.1438
ITEM: ATOMS id xs ys zs c_msd_abov[4] 
2881 0.51715 0.51715 1.00499 0.224424 
ITEM: TIMESTEP
8000
ITEM: NUMBER OF ATOMS
1
ITEM: BOX BOUNDS ss ss ss
26.2065 73.8913
26.2065 73.8913
-0.004 20.1438
ITEM: ATOMS id xs ys zs c_msd_abov[4] 
2881 0.519813 0.519813 0.995082 0.349471 
ITEM: TIMESTEP
8080
ITEM: NUMBER OF ATOMS
1
ITEM: BOX BOUNDS ss ss ss
26.1572 73.7274
26.1572 73.7274
-0.004 19.8943
ITEM: ATOMS id xs ys zs c_msd_abov[4] 
2881 0.522106 0.522106 0.992942 0.640248 
ITEM: TIMESTEP
8160
ITEM: NUMBER OF ATOMS
1
ITEM: BOX BOUNDS ss ss ss
26.1572 73.7274
26.1572 73.7274
-0.004 19.8943
ITEM: ATOMS id xs ys zs c_msd_abov[4] 
2881 0.519381 0.519381 0.985664 0.803321 
ITEM: TIMESTEP
8240
ITEM: NUMBER OF ATOMS
1
ITEM: BOX BOUNDS ss ss ss
26.1572 73.7274
26.1572 73.7274
-0.004 19.8943
ITEM: ATOMS id xs ys zs c_msd_abov[4] 
2881 0.518578 0.518578 0.976626 0.990626 
ITEM: TIMESTEP
8320
ITEM: NUMBER OF ATOMS
1
ITEM: BOX BOUNDS ss ss ss
26.1572 73.7274
26.1572 73.7274
-0.004 19.8943
ITEM: ATOMS id xs ys zs c_msd_abov[4] 
2881 0.518224 0.518224 0.974456 1.03819 
ITEM: TIMESTEP
8400
ITEM: NUMBER OF ATOMS
1
ITEM: BOX BOUNDS ss ss ss
26.2566 73.8961
26.2566 73.8961
-0.004 19.5976
ITEM: ATOMS id xs ys zs c_msd_abov[4] 
2881 0.516042 0.516042 1.00462 0.734788 
ITEM: TIMESTEP
8480
ITEM: NUMBER OF ATOMS
1
ITEM: BOX BOUNDS ss ss ss
26.2566 73.8961
26.2566 73.8961
-0.004 19.5976
ITEM: ATOMS id xs ys zs c_msd_abov[4] 
2881 0.518088 0.518088 1.01495 0.507745 
ITEM: TIMESTEP
8560
ITEM: NUMBER OF ATOMS
1
ITEM: BOX BOUNDS ss ss ss
26.2566 73.8961
26.2566 73.8961
-0.004 19.5976
ITEM: ATOMS id xs ys zs c_msd_abov[4] 
2881 0.520757 0.520757 1.0215 0.391789 
ITEM: TIMESTEP
8640
ITEM: NUMBER OF ATOMS
1
ITEM: BOX BOUNDS ss ss ss
26.2566 73.8961
26.2566 73.8961
-0.004 19.5976
ITEM: ATOMS id xs ys zs c_msd_abov[4] 
2881 0.522801 0.522801 1.03233 0.299291 
ITEM: TIMESTEP
8720
ITEM: NUMBER OF ATOMS
1
ITEM: BOX BOUNDS ss ss ss
26.2238 73.7742
26.2238 73.7742
-0.004 20.2534
ITEM: ATOMS id xs ys zs c_msd_abov[4] 
2881 0.524407 0.524407 0.99826 0.303136 
ITEM: TIMESTEP
8800
ITEM: NUMBER OF ATOMS
1
ITEM: BOX BOUNDS ss ss ss
26.2238 73.7742
26.2238 73.7742
-0.004 20.2534
ITEM: ATOMS id xs ys zs c_msd_abov[4] 
2881 0.522103 0.522103 0.988484 0.385058 
ITEM: TIMESTEP
8880
ITEM: NUMBER OF ATOMS
1
ITEM: BOX BOUNDS ss ss ss
26.2238 73.7742
26.2238 73.7742
-0.004 20.2534
ITEM: ATOMS id xs ys zs c_msd_abov[4] 
2881 0.519837 0.519837 0.990012 0.348227 
ITEM: TIMESTEP
8960
ITEM: NUMBER OF ATOMS
1
ITEM: BOX BOUNDS ss ss ss
26.2238 73.7742
26.2238 73.7742
-0.004 20.2534
ITEM: ATOMS id xs ys zs c_msd_abov[4] 
2881 0.519649 0.519649 0.991868 0.313969 
ITEM: TIMESTEP
9040
ITEM: NUMBER OF ATOMS
1
ITEM: BOX BOUNDS ss ss ss
26.2238 73.7742
26.2238 73.7742
-0.004 20.2534
ITEM: ATOMS id xs ys zs c_msd_abov[4] 
2881 0.520811 0.520811 0.980574 0.534155 
ITEM: TIMESTEP
9120
ITEM: NUMBER OF ATOMS
1
ITEM: BOX BOUNDS ss ss ss
25.948 73.9023
25.948 73.9023
-0.004 19.6158
ITEM: ATOMS id xs ys zs c_msd_abov[4] 
2881 0.524095 0.524095 0.999679 0.796118 
ITEM: TIMESTEP
9200
ITEM: NUMBER OF ATOMS
1
ITEM: BOX BOUNDS ss ss ss
25.948 73.9023
25.948 73.9023
-0.004 19.6158
ITEM: ATOMS id xs ys zs c_msd_abov[4] 
2881 0.525196 0.525196 0.990318 0.99069 
ITEM: TIMESTEP
9280
ITEM: NUMBER OF ATOMS
1
ITEM: BOX BOUNDS ss ss ss
25.948 73.9023
25.948 73.9023
-0.004 19.6158
ITEM: ATOMS id xs ys zs c_msd_abov[4] 
2881 0.524887 0.524887 0.979861 1.18849 
ITEM: TIMESTEP
9360
ITEM: NUMBER OF ATOMS
1
ITEM: BOX BOUNDS ss ss ss
26.2049 73.9292
26.2049 73.9292
-0.004 19.2107
ITEM: ATOMS id xs ys zs c_msd_abov[4] 
2881 0.521637 0.521637 1.00461 1.10669 
ITEM: TIMESTEP
9440
ITEM: NUMBER OF ATOMS
1
ITEM: BOX BOUNDS ss ss ss
26.2049 73.9292
26.2049 73.9292
-0.004 19.2107
ITEM: ATOMS id xs ys zs c_msd_abov[4] 
2881 0.521616 0.521616 1.01426 0.923431 
ITEM: TIMESTEP
9520
ITEM: NUMBER OF ATOMS
1
ITEM: BOX BOUNDS ss ss ss
26.2049 73.9292
26.2049 73.9292
-0.004 19.2107
ITEM: ATOMS id xs ys zs c_msd_abov[4] 
2881 0.520682 0.520682 1.02656 0.680107 
ITEM: TIMESTEP
9600
ITEM: NUMBER OF ATOMS
1
ITEM: BOX BOUNDS ss ss ss
26.2049 73.9292
26.2049 73.9292
-0.004 19.2107
ITEM: ATOMS id xs ys zs c_msd_abov[4] 
2881 0.520013 0.520013 1.04641 0.296267 
ITEM: TIMESTEP
9680
ITEM: NUMBER OF ATOMS
1
ITEM: BOX BOUNDS ss ss ss
26.158 73.9598
26.158 73.9598
-0.004 20.205
ITEM: ATOMS id xs ys zs c_msd_abov[4] 
2881 0.52019 0.52019 1.00184 0.161555 
ITEM: TIMESTEP
9760
ITEM: NUMBER OF ATOMS
1
ITEM: BOX BOUNDS ss ss ss
26.158 73.9598
26.158 73.9598
-0.004 20.205
ITEM: ATOMS id xs ys zs c_msd_abov[4] 
2881 0.520397 0.520397 0.994917 0.2998 
ITEM: TIMESTEP
9840
ITEM: NUMBER OF ATOMS
1
ITEM: BOX BOUNDS ss ss ss
26.158 73.9598
26.158 73.9598
-0.004 20.205
ITEM: ATOMS id xs ys zs c_msd_abov[4] 
2881 0.521517 0.521517 0.996111 0.304286 
ITEM: TIMESTEP
9920
ITEM: NUMBER OF ATOMS
1
ITEM: BOX BOUNDS ss ss ss
26.034 74.0051
26.034 74.0051
-0.004 20.1402
ITEM: ATOMS id xs ys zs c_msd_abov[4] 
2881 0.522294 0.522294 1.0061 0.196959 
ITEM: TIMESTEP
10000
ITEM: NUMBER OF ATOMS
1
ITEM: BOX BOUNDS ss ss ss
26.034 74.0051
26.034 74.0051
-0.004 20.1402
ITEM: ATOMS id xs ys zs c_msd_abov[4] 
2881 0.519827 0.519827 1.00376 0.17919 
ITEM: TIMESTEP
10080
ITEM: NUMBER OF ATOMS
1
ITEM: BOX BOUNDS ss ss ss
26.034 74.0051
26.034 74.0051
-0.004 20.1402
ITEM: ATOMS id xs ys zs c_msd_abov[4] 
2881 0.517081 0.517081 0.998979 0.34346 
ITEM: TIMESTEP
10160
ITEM: NUMBER OF ATOMS
1
ITEM: BOX BOUNDS ss ss ss
26.034 74.0051
26.034 74.0051
-0.004 20.1402
ITEM: ATOMS id xs ys zs c_msd_abov[4] 
2881 0.518402 0.518402 1.005 0.192696 
ITEM: TIMESTEP
10240
ITEM: NUMBER OF ATOMS
1
ITEM: BOX BOUNDS ss ss ss
26.0135 74.0911
26.0135 74.0911
-0.004 20.2711
ITEM: ATOMS id xs ys zs c_msd_abov[4] 
2881 0.519342 0.519342 0.998732 0.148695 
ITEM: TIMESTEP
10320
ITEM: NUMBER OF ATOMS
1
ITEM: BOX BOUNDS ss ss ss
26.0135 74.0911
26.0135 74.0911
-0.004 20.2711
ITEM: ATOMS id xs ys zs c_msd_abov[4] 
2881 0.518268 0.518268 0.995879 0.220342 
ITEM: TIMESTEP
10400
ITEM: NUMBER OF ATOMS
1
ITEM: BOX BOUNDS ss ss ss
26.0135 74.0911
26.0135 74.0911
-0.004 20.2711
ITEM: ATOMS id xs ys zs c_msd_abov[4] 
2881 0.519696 0.519696 1.00548 0.0233938 
ITEM: TIMESTEP
10480
ITEM: NUMBER OF ATOMS
1
ITEM: BOX BOUNDS ss ss ss
26.0344 74.0166
26.0344 74.0166
-0.004 20.4727
ITEM: ATOMS id xs ys zs c_msd_abov[4] 
2881 0.522965 0.522965 0.99984 0.215086 
ITEM: TIMESTEP
10560
ITEM: NUMBER OF ATOMS
1
ITEM: BOX BOUNDS ss ss ss
26.0344 74.0166
26.0344 74.0166
-0.004 20.4727
ITEM: ATOMS id xs ys zs c_msd_abov[4] 
2881 0.522465 0.522465 0.994667 0.170187 
ITEM: TIMESTEP
10640
ITEM: NUMBER OF ATOMS
1
ITEM: BOX BOUNDS ss ss ss
26.0344 74.0166
26.0344 74.0166
-0.004 20.4727
ITEM: ATOMS id xs ys zs c_msd_abov[4] 
2881 0.519586 0.519586 0.992189 0.0858673 
ITEM: TIMESTEP
10720
ITEM: NUMBER OF ATOMS
1
ITEM: BOX BOUNDS ss ss ss
26.0344 74.0166
26.0344 74.0166
-0.004 20.4727
ITEM: ATOMS id xs ys zs c_msd_abov[4] 
2881 0.520963 0.520963 0.997359 0.0700218 
ITEM: TIMESTEP
10800
ITEM: NUMBER OF ATOMS
1
ITEM: BOX BOUNDS ss ss ss
25.7836 74.0216
25.7836 74.0216
-0.004 20.4472
ITEM: ATOMS id xs ys zs c_msd_abov[4] 
2881 0.524564 0.524564 1.00029 0.156518 
ITEM: TIMESTEP
10880
ITEM: NUMBER OF ATOMS
1
ITEM: BOX BOUNDS ss ss ss
25.7836 74.0216
25.7836 74.0216
-0.004 20.4472
ITEM: ATOMS id xs ys zs c_msd_abov[4] 
2881 0.52183 0.52183 1.00314 0.12444 
ITEM: TIMESTEP
10960
ITEM: NUMBER OF ATOMS
1
ITEM: BOX BOUNDS ss ss ss
25.7836 74.0216
25.7836 74.0216
-0.004 20.4472
ITEM: ATOMS id xs ys zs c_msd_abov[4] 
2881 0.519826 0.519826 0.999503 0.183346 
ITEM: TIMESTEP
11040
ITEM: NUMBER OF ATOMS
1
ITEM: BOX BOUNDS ss ss ss
26.0351 74.1718
26.0351 74.1718
-0.004 20.4197
ITEM: ATOMS id xs ys zs c_msd_abov[4] 
2881 0.517025 0.517025 0.994855 0.118297 
ITEM: TIMESTEP
11120
ITEM: NUMBER OF ATOMS
1
ITEM: BOX BOUNDS ss ss ss
26.0351 74.1718
26.0351 74.1718
-0.004 20.4197
ITEM: ATOMS id xs ys zs c_msd_abov[4] 
2881 0.518448 0.518448 0.987983 0.219892 
ITEM: TIMESTEP
11200
ITEM: NUMBER OF ATOMS
1
ITEM: BOX BOUNDS ss ss ss
26.0351 74.1718
26.0351 74.1718
-0.004 20.4197
ITEM: ATOMS id xs ys zs c_msd_abov[4] 
2881 0.517803 0.517803 0.980168 0.380912 
ITEM: TIMESTEP
11280
ITEM: NUMBER OF ATOMS
1
ITEM: BOX BOUNDS ss ss ss
26.0982 74.3425
26.0982 74.3425
-0.004 19.9624
ITEM: ATOMS id xs ys zs c_msd_abov[4] 
2881 0.516586 0.516586 0.990543 0.622504 
ITEM: TIMESTEP
11360
ITEM: NUMBER OF ATOMS
1
ITEM: BOX BOUNDS ss ss ss
26.0982 74.3425
26.0982 74.3425
-0.004 19.9624
ITEM: ATOMS id xs ys zs c_msd_abov[4] 
2881 0.520696 0.520696 0.980717 0.88105 
ITEM: TIMESTEP
11440
ITEM: NUMBER OF ATOMS
1
ITEM: BOX BOUNDS ss ss ss
26.0982 74.3425
26.0982 74.3425
-0.004 19.9624
ITEM: ATOMS id xs ys zs c_msd_abov[4] 
2881 0.52118 0.52118 0.973866 1.02044 
ITEM: TIMESTEP
11520
ITEM: NUMBER OF ATOMS
1
ITEM: BOX BOUNDS ss ss ss
26.1114 74.5829
26.1114 74.5829
-0.004 19.3805
ITEM: ATOMS id xs ys zs c_msd_abov[4] 
2881 0.514657 0.514657 0.999368 1.03085 
ITEM: TIMESTEP
11600
ITEM: NUMBER OF ATOMS
1
ITEM: BOX BOUNDS ss ss ss
26.1114 74.5829
26.1114 74.5829
-0.004 19.3805
ITEM: ATOMS id xs ys zs c_msd_abov[4] 
2881 0.510366 0.510366 1.00508 0.934907 
ITEM: TIMESTEP
11680
ITEM: NUMBER OF ATOMS
1
ITEM: BOX BOUNDS ss ss ss
26.1114 74.5829
26.1114 74.5829
-0.004 19.3805
ITEM: ATOMS id xs ys zs c_msd_abov[4] 
2881 0.507578 0.507578 1.01322 0.848334 
ITEM: TIMESTEP
11760
ITEM: NUMBER OF ATOMS
1
ITEM: BOX BOUNDS ss ss ss
26.1114 74.5829
26.1114 74.5829
-0.004 19.3805
ITEM: ATOMS id xs ys zs c_msd_abov[4] 
2881 0.507025 0.507025 1.02233 0.716884 
ITEM: TIMESTEP
11840
ITEM: NUMBER OF ATOMS
1
ITEM: BOX BOUNDS ss ss ss
26.0129 74.3847
26.0129 74.3847
-0.004 19.9649
ITEM: ATOMS id xs ys zs c_msd_abov[4] 
2881 0.511624 0.511624 1.00789 0.417066 
ITEM: TIMESTEP
11920
ITEM: NUMBER OF ATOMS
1
ITEM: BOX BOUNDS ss ss ss
26.0129 74.3847
26.0129 74.3847
-0.004 19.9649
ITEM: ATOMS id xs ys zs c_msd_abov[4] 
2881 0.513413 0.513413 1.01248 0.264758 
ITEM: TIMESTEP
12000
ITEM: NUMBER OF ATOMS
1
ITEM: BOX BOUNDS ss ss ss
26.0129 74.3847
26.0129 74.3847
-0.004 19.9649
ITEM: ATOMS id xs ys zs c_msd_abov[4] 
2881 0.515262 0.515262 1.00262 0.382815 
ITEM: TIMESTEP
12080
ITEM: NUMBER OF ATOMS
1
ITEM: BOX BOUNDS ss ss ss
26.0129 74.3847
26.0129 74.3847
-0.004 19.9649
ITEM: ATOMS id xs ys zs c_msd_abov[4] 
2881 0.516367 0.516367 0.999743 0.434265 
ITEM: TIMESTEP
12160
ITEM: NUMBER OF ATOMS
1
ITEM: BOX BOUNDS ss ss ss