ITEM: TIMESTEP
0
ITEM: NUMBER OF ATOMS
1
ITEM: BOX BOUNDS ss ss ss
26.5002 73.4304
26.5002 73.4304
-0.004 20.398
ITEM: ATOMS id xs ys zs c_msd_abov[4] 
2881 0.521728 0.521728 0.999804 0 
ITEM: TIMESTEP
80
ITEM: NUMBER OF ATOMS
1
ITEM: BOX BOUNDS ss ss ss
26.5002 73.4304
26.5002 73.4304
-0.004 20.398
ITEM: ATOMS id xs ys zs c_msd_abov[4] 
2881 0.521728 0.521728 0.98685 0.264292 
ITEM: TIMESTEP
160
ITEM: NUMBER OF ATOMS
1
ITEM: BOX BOUNDS ss ss ss
26.5002 73.4304
26.5002 73.4304
-0.004 20.398
ITEM: ATOMS id xs ys zs c_msd_abov[4] 
2881 0.521728 0.521728 0.97017 0.604596 
ITEM: TIMESTEP
240
ITEM: NUMBER OF ATOMS
1
ITEM: BOX BOUNDS ss ss ss
26.5002 73.4304
26.5002 73.4304
-0.004 20.398
ITEM: ATOMS id xs ys zs c_msd_abov[4] 
2881 0.521728 0.521728 0.969446 0.619363 
ITEM: TIMESTEP
320
ITEM: NUMBER OF ATOMS
1
ITEM: BOX BOUNDS ss ss ss
26.4784 73.4522
26.4784 73.4522
-0.004 19.5864
ITEM: ATOMS id xs ys zs c_msd_abov[4] 
2881 0.521708 0.521708 0.99838 0.839303 
ITEM: TIMESTEP
400
ITEM: NUMBER OF ATOMS
1
ITEM: BOX BOUNDS ss ss ss
26.4784 73.4522
26.4784 73.4522
-0.004 19.5864
ITEM: ATOMS id xs ys zs c_msd_abov[4] 
2881 0.521709 0.521709 0.987049 1.06128 
ITEM: TIMESTEP
480
ITEM: NUMBER OF ATOMS
1
ITEM: BOX BOUNDS ss ss ss
26.4784 73.4522
26.4784 73.4522
-0.004 19.5864
ITEM: ATOMS id xs ys zs c_msd_abov[4] 
2881 0.521712 0.521712 0.99255 0.953519 
ITEM: TIMESTEP
560
ITEM: NUMBER OF ATOMS
1
ITEM: BOX BOUNDS ss ss ss
26.4784 73.4522
26.4784 73.4522
-0.004 19.5864
ITEM: ATOMS id xs ys zs c_msd_abov[4] 
2881 0.521721 0.521721 0.993139 0.941971 
ITEM: TIMESTEP
640
ITEM: NUMBER OF ATOMS
1
ITEM: BOX BOUNDS ss ss ss
26.4784 73.4522
26.4784 73.4522
-0.004 19.5864
ITEM: ATOMS id xs ys zs c_msd_abov[4] 
2881 0.521741 0.521741 0.993367 0.937519 
ITEM: TIMESTEP
720
ITEM: NUMBER OF ATOMS
1
ITEM: BOX BOUNDS ss ss ss
26.4784 73.4522
26.4784 73.4522
-0.004 19.5864
ITEM: ATOMS id xs ys zs c_msd_abov[4] 
2881 0.521746 0.521746 1.00153 0.777514 
ITEM: TIMESTEP
800
ITEM: NUMBER OF ATOMS
1
ITEM: BOX BOUNDS ss ss ss
26.4784 73.4522
26.4784 73.4522
-0.004 19.5864
ITEM: ATOMS id xs ys zs c_msd_abov[4] 
2881 0.521713 0.521713 1.00366 0.735841 
ITEM: TIMESTEP
880
ITEM: NUMBER OF ATOMS
1
ITEM: BOX BOUNDS ss ss ss
26.4784 73.4522
26.4784 73.4522
-0.004 19.5864
ITEM: ATOMS id xs ys zs c_msd_abov[4] 
2881 0.521584 0.521584 1.00683 0.673905 
ITEM: TIMESTEP
960
ITEM: NUMBER OF ATOMS
1
ITEM: BOX BOUNDS ss ss ss
26.4784 73.4522
26.4784 73.4522
-0.004 19.5864
ITEM: ATOMS id xs ys zs c_msd_abov[4] 
2881 0.52142 0.52142 1.0128 0.557057 
ITEM: TIMESTEP
1040
ITEM: NUMBER OF ATOMS
1
ITEM: BOX BOUNDS ss ss ss
26.4784 73.4522
26.4784 73.4522
-0.004 19.5864
ITEM: ATOMS id xs ys zs c_msd_abov[4] 
2881 0.521304 0.521304 1.01399 0.534094 
ITEM: TIMESTEP
1120
ITEM: NUMBER OF ATOMS
1
ITEM: BOX BOUNDS ss ss ss
26.4784 73.4522
26.4784 73.4522
-0.004 19.5864
ITEM: ATOMS id xs ys zs c_msd_abov[4] 
2881 0.521282 0.521282 1.02531 0.31305 
ITEM: TIMESTEP
1200
ITEM: NUMBER OF ATOMS
1
ITEM: BOX BOUNDS ss ss ss
26.4784 73.4522
26.4784 73.4522
-0.004 19.5864
ITEM: ATOMS id xs ys zs c_msd_abov[4] 
2881 0.521297 0.521297 1.03601 0.105637 
ITEM: TIMESTEP
1280
ITEM: NUMBER OF ATOMS
1
ITEM: BOX BOUNDS ss ss ss
26.4189 73.5134
26.4189 73.5134
-0.004 20.2713
ITEM: ATOMS id xs ys zs c_msd_abov[4] 
2881 0.521236 0.521236 0.997751 0.170394 
ITEM: TIMESTEP
1360
ITEM: NUMBER OF ATOMS
1
ITEM: BOX BOUNDS ss ss ss
26.4189 73.5134
26.4189 73.5134
-0.004 20.2713
ITEM: ATOMS id xs ys zs c_msd_abov[4] 
2881 0.521311 0.521311 1.00513 0.0285348 
ITEM: TIMESTEP
1440
ITEM: NUMBER OF ATOMS
1
ITEM: BOX BOUNDS ss ss ss
26.4189 73.5134
26.4189 73.5134
-0.004 20.2713
ITEM: ATOMS id xs ys zs c_msd_abov[4] 
2881 0.521327 0.521327 1.01743 0.231637 
ITEM: TIMESTEP
1520
ITEM: NUMBER OF ATOMS
1
ITEM: BOX BOUNDS ss ss ss
26.4189 73.5134
26.4189 73.5134
-0.004 20.2713
ITEM: ATOMS id xs ys zs c_msd_abov[4] 
2881 0.521276 0.521276 1.01501 0.183108 
ITEM: TIMESTEP
1600
ITEM: NUMBER OF ATOMS
1
ITEM: BOX BOUNDS ss ss ss
26.4189 73.5134
26.4189 73.5134
-0.004 20.2713
ITEM: ATOMS id xs ys zs c_msd_abov[4] 
2881 0.521363 0.521363 1.01612 0.204832 
ITEM: TIMESTEP
1680
ITEM: NUMBER OF ATOMS
1
ITEM: BOX BOUNDS ss ss ss
26.4189 73.5134
26.4189 73.5134
-0.004 20.2713
ITEM: ATOMS id xs ys zs c_msd_abov[4] 
2881 0.521593 0.521593 1.01927 0.268071 
ITEM: TIMESTEP
1760
ITEM: NUMBER OF ATOMS
1
ITEM: BOX BOUNDS ss ss ss
26.4189 73.5134
26.4189 73.5134
-0.004 20.2713
ITEM: ATOMS id xs ys zs c_msd_abov[4] 
2881 0.521869 0.521869 1.00717 0.0274619 
ITEM: TIMESTEP
1840
ITEM: NUMBER OF ATOMS
1
ITEM: BOX BOUNDS ss ss ss
26.4189 73.5134
26.4189 73.5134
-0.004 20.2713
ITEM: ATOMS id xs ys zs c_msd_abov[4] 
2881 0.522328 0.522328 0.997972 0.170213 
ITEM: TIMESTEP
1920
ITEM: NUMBER OF ATOMS
1
ITEM: BOX BOUNDS ss ss ss
26.4189 73.5134
26.4189 73.5134
-0.004 20.2713
ITEM: ATOMS id xs ys zs c_msd_abov[4] 
2881 0.522533 0.522533 0.998374 0.166765 
ITEM: TIMESTEP
2000
ITEM: NUMBER OF ATOMS
1
ITEM: BOX BOUNDS ss ss ss
26.41 73.5161
26.41 73.5161
-0.004 20.1783
ITEM: ATOMS id xs ys zs c_msd_abov[4] 
2881 0.522468 0.522468 0.992669 0.367286 
ITEM: TIMESTEP
2080
ITEM: NUMBER OF ATOMS
1
ITEM: BOX BOUNDS ss ss ss
26.41 73.5161
26.41 73.5161
-0.004 20.1783
ITEM: ATOMS id xs ys zs c_msd_abov[4] 
2881 0.522186 0.522186 0.981699 0.58598 
ITEM: TIMESTEP
2160
ITEM: NUMBER OF ATOMS
1
ITEM: BOX BOUNDS ss ss ss
26.41 73.5161
26.41 73.5161
-0.004 20.1783
ITEM: ATOMS id xs ys zs c_msd_abov[4] 
2881 0.521913 0.521913 0.977389 0.672223 
ITEM: TIMESTEP
2240
ITEM: NUMBER OF ATOMS
1
ITEM: BOX BOUNDS ss ss ss
26.41 73.5161
26.41 73.5161
-0.004 20.1783
ITEM: ATOMS id xs ys zs c_msd_abov[4] 
2881 0.521418 0.521418 0.967319 0.875483 
ITEM: TIMESTEP
2320
ITEM: NUMBER OF ATOMS
1
ITEM: BOX BOUNDS ss ss ss
26.41 73.5161
26.41 73.5161
-0.004 20.1783
ITEM: ATOMS id xs ys zs c_msd_abov[4] 
2881 0.520986 0.520986 0.965813 0.906919 
ITEM: TIMESTEP
2400
ITEM: NUMBER OF ATOMS
1
ITEM: BOX BOUNDS ss ss ss
26.41 73.5161
26.41 73.5161
-0.004 20.1783
ITEM: ATOMS id xs ys zs c_msd_abov[4] 
2881 0.521515 0.521515 0.971051 0.800061 
ITEM: TIMESTEP
2480
ITEM: NUMBER OF ATOMS
1
ITEM: BOX BOUNDS ss ss ss
26.41 73.5161
26.41 73.5161
-0.004 20.1783
ITEM: ATOMS id xs ys zs c_msd_abov[4] 
2881 0.522085 0.522085 0.962167 0.979609 
ITEM: TIMESTEP
2560
ITEM: NUMBER OF ATOMS
1
ITEM: BOX BOUNDS ss ss ss
26.41 73.5161
26.41 73.5161
-0.004 20.1783
ITEM: ATOMS id xs ys zs c_msd_abov[4] 
2881 0.522564 0.522564 0.953898 1.14762 
ITEM: TIMESTEP
2640
ITEM: NUMBER OF ATOMS
1
ITEM: BOX BOUNDS ss ss ss
26.41 73.5161
26.41 73.5161
-0.004 20.1783
ITEM: ATOMS id xs ys zs c_msd_abov[4] 
2881 0.523227 0.523227 0.959781 1.03249 
ITEM: TIMESTEP
2720
ITEM: NUMBER OF ATOMS
1
ITEM: BOX BOUNDS ss ss ss
26.41 73.5161
26.41 73.5161
-0.004 20.1783
ITEM: ATOMS id xs ys zs c_msd_abov[4] 
2881 0.523181 0.523181 0.961615 0.99534 
ITEM: TIMESTEP
2800
ITEM: NUMBER OF ATOMS
1
ITEM: BOX BOUNDS ss ss ss
26.41 73.5161
26.41 73.5161
-0.004 20.1783
ITEM: ATOMS id xs ys zs c_msd_abov[4] 
2881 0.522152 0.522152 0.963566 0.951522 
ITEM: TIMESTEP
2880
ITEM: NUMBER OF ATOMS
1
ITEM: BOX BOUNDS ss ss ss
26.41 73.5161
26.41 73.5161
-0.004 20.1783
ITEM: ATOMS id xs ys zs c_msd_abov[4] 
2881 0.52125 0.52125 0.967375 0.874661 
ITEM: TIMESTEP
2960
ITEM: NUMBER OF ATOMS
1
ITEM: BOX BOUNDS ss ss ss
26.41 73.5161
26.41 73.5161
-0.004 20.1783
ITEM: ATOMS id xs ys zs c_msd_abov[4] 
2881 0.520588 0.520588 0.965403 0.916926 
ITEM: TIMESTEP
3040
ITEM: NUMBER OF ATOMS
1
ITEM: BOX BOUNDS ss ss ss
26.41 73.5161
26.41 73.5161
-0.004 20.1783
ITEM: ATOMS id xs ys zs c_msd_abov[4] 
2881 0.520623 0.520623 0.971325 0.797637 
ITEM: TIMESTEP
3120
ITEM: NUMBER OF ATOMS
1
ITEM: BOX BOUNDS ss ss ss
26.41 73.5161
26.41 73.5161
-0.004 20.1783
ITEM: ATOMS id xs ys zs c_msd_abov[4] 
2881 0.520929 0.520929 0.981428 0.592735 
ITEM: TIMESTEP
3200
ITEM: NUMBER OF ATOMS
1
ITEM: BOX BOUNDS ss ss ss
26.41 73.5161
26.41 73.5161
-0.004 20.1783
ITEM: ATOMS id xs ys zs c_msd_abov[4] 
2881 0.520417 0.520417 0.980132 0.622554 
ITEM: TIMESTEP
3280
ITEM: NUMBER OF ATOMS
1
ITEM: BOX BOUNDS ss ss ss
26.3933 73.5368
26.3933 73.5368
-0.004 19.7594
ITEM: ATOMS id xs ys zs c_msd_abov[4] 
2881 0.519254 0.519254 1.00364 0.584655 
ITEM: TIMESTEP
3360
ITEM: NUMBER OF ATOMS
1
ITEM: BOX BOUNDS ss ss ss
26.3933 73.5368
26.3933 73.5368
-0.004 19.7594
ITEM: ATOMS id xs ys zs c_msd_abov[4] 
2881 0.519657 0.519657 1.01831 0.303002 
ITEM: TIMESTEP
3440
ITEM: NUMBER OF ATOMS
1
ITEM: BOX BOUNDS ss ss ss
26.3933 73.5368
26.3933 73.5368
-0.004 19.7594
ITEM: ATOMS id xs ys zs c_msd_abov[4] 
2881 0.520745 0.520745 1.02308 0.188054 
ITEM: TIMESTEP
3520
ITEM: NUMBER OF ATOMS
1
ITEM: BOX BOUNDS ss ss ss
26.3933 73.5368
26.3933 73.5368
-0.004 19.7594
ITEM: ATOMS id xs ys zs c_msd_abov[4] 
2881 0.521505 0.521505 1.02642 0.112816 
ITEM: TIMESTEP
3600
ITEM: NUMBER OF ATOMS
1
ITEM: BOX BOUNDS ss ss ss
26.3933 73.5368
26.3933 73.5368
-0.004 19.7594
ITEM: ATOMS id xs ys zs c_msd_abov[4] 
2881 0.52156 0.52156 1.02531 0.134538 
ITEM: TIMESTEP
3680
ITEM: NUMBER OF ATOMS
1
ITEM: BOX BOUNDS ss ss ss
26.3933 73.5368
26.3933 73.5368
-0.004 19.7594
ITEM: ATOMS id xs ys zs c_msd_abov[4] 
2881 0.521163 0.521163 1.01285 0.38202 
ITEM: TIMESTEP
3760
ITEM: NUMBER OF ATOMS
1
ITEM: BOX BOUNDS ss ss ss
26.3933 73.5368
26.3933 73.5368
-0.004 19.7594
ITEM: ATOMS id xs ys zs c_msd_abov[4] 
2881 0.520367 0.520367 1.01077 0.43025 
ITEM: TIMESTEP
3840
ITEM: NUMBER OF ATOMS
1
ITEM: BOX BOUNDS ss ss ss
26.2196 73.691
26.2196 73.691
-0.004 20.0391
ITEM: ATOMS id xs ys zs c_msd_abov[4] 
2881 0.520423 0.520423 1.00319 0.303189 
ITEM: TIMESTEP
3920
ITEM: NUMBER OF ATOMS
1
ITEM: BOX BOUNDS ss ss ss
26.2196 73.691
26.2196 73.691
-0.004 20.0391
ITEM: ATOMS id xs ys zs c_msd_abov[4] 
2881 0.521234 0.521234 1.00435 0.269457 
ITEM: TIMESTEP
4000
ITEM: NUMBER OF ATOMS
1
ITEM: BOX BOUNDS ss ss ss
26.2196 73.691
26.2196 73.691
-0.004 20.0391
ITEM: ATOMS id xs ys zs c_msd_abov[4] 
2881 0.522441 0.522441 1.00241 0.310683 
ITEM: TIMESTEP
4080
ITEM: NUMBER OF ATOMS
1
ITEM: BOX BOUNDS ss ss ss
26.2196 73.691
26.2196 73.691
-0.004 20.0391
ITEM: ATOMS id xs ys zs c_msd_abov[4] 
2881 0.523476 0.523476 0.996066 0.450004 
ITEM: TIMESTEP
4160
ITEM: NUMBER OF ATOMS
1
ITEM: BOX BOUNDS ss ss ss
26.2196 73.691
26.2196 73.691
-0.004 20.0391
ITEM: ATOMS id xs ys zs c_msd_abov[4] 
2881 0.523589 0.523589 0.992524 0.520577 
ITEM: TIMESTEP
4240
ITEM: NUMBER OF ATOMS
1
ITEM: BOX BOUNDS ss ss ss
26.2196 73.691
26.2196 73.691
-0.004 20.0391
ITEM: ATOMS id xs ys zs c_msd_abov[4] 
2881 0.523732 0.523732 0.995841 0.459168 
ITEM: TIMESTEP
4320
ITEM: NUMBER OF ATOMS
1
ITEM: BOX BOUNDS ss ss ss
26.2196 73.691
26.2196 73.691
-0.004 20.0391
ITEM: ATOMS id xs ys zs c_msd_abov[4] 
2881 0.524249 0.524249 0.997844 0.433577 
ITEM: TIMESTEP
4400
ITEM: NUMBER OF ATOMS
1
ITEM: BOX BOUNDS ss ss ss
26.2196 73.691
26.2196 73.691
-0.004 20.0391
ITEM: ATOMS id xs ys zs c_msd_abov[4] 
2881 0.524644 0.524644 1.00007 0.405356 
ITEM: TIMESTEP
4480
ITEM: NUMBER OF ATOMS
1
ITEM: BOX BOUNDS ss ss ss
26.2196 73.691
26.2196 73.691
-0.004 20.0391
ITEM: ATOMS id xs ys zs c_msd_abov[4] 
2881 0.524434 0.524434 1.00273 0.352148 
ITEM: TIMESTEP
4560
ITEM: NUMBER OF ATOMS
1
ITEM: BOX BOUNDS ss ss ss
26.2196 73.691
26.2196 73.691
-0.004 20.0391
ITEM: ATOMS id xs ys zs c_msd_abov[4] 
2881 0.523416 0.523416 1.00487 0.282209 
ITEM: TIMESTEP
4640
ITEM: NUMBER OF ATOMS
1
ITEM: BOX BOUNDS ss ss ss
26.436 73.4929
26.436 73.4929
-0.004 20.2006
ITEM: ATOMS id xs ys zs c_msd_abov[4] 
2881 0.522204 0.522204 1.0035 0.127469 
ITEM: TIMESTEP
4720
ITEM: NUMBER OF ATOMS
1
ITEM: BOX BOUNDS ss ss ss
26.436 73.4929
26.436 73.4929
-0.004 20.2006
ITEM: ATOMS id xs ys zs c_msd_abov[4] 
2881 0.521656 0.521656 1.00874 0.016932 
ITEM: TIMESTEP
4800
ITEM: NUMBER OF ATOMS
1
ITEM: BOX BOUNDS ss ss ss
26.436 73.4929
26.436 73.4929
-0.004 20.2006
ITEM: ATOMS id xs ys zs c_msd_abov[4] 
2881 0.521816 0.521816 1.00445 0.103874 
ITEM: TIMESTEP
4880
ITEM: NUMBER OF ATOMS
1
ITEM: BOX BOUNDS ss ss ss
26.3407 73.6264
26.3407 73.6264
-0.004 20.2636
ITEM: ATOMS id xs ys zs c_msd_abov[4] 
2881 0.521066 0.521066 0.997426 0.182722 
ITEM: TIMESTEP
4960
ITEM: NUMBER OF ATOMS
1
ITEM: BOX BOUNDS ss ss ss
26.3407 73.6264
26.3407 73.6264
-0.004 20.2636
ITEM: ATOMS id xs ys zs c_msd_abov[4] 
2881 0.51919 0.51919 0.998483 0.208944 
ITEM: TIMESTEP
5040
ITEM: NUMBER OF ATOMS
1
ITEM: BOX BOUNDS ss ss ss
26.3407 73.6264
26.3407 73.6264
-0.004 20.2636
ITEM: ATOMS id xs ys zs c_msd_abov[4] 
2881 0.517462 0.517462 0.993176 0.366012 
ITEM: TIMESTEP
5120
ITEM: NUMBER OF ATOMS
1
ITEM: BOX BOUNDS ss ss ss
26.3407 73.6264
26.3407 73.6264
-0.004 20.2636
ITEM: ATOMS id xs ys zs c_msd_abov[4] 
2881 0.517373 0.517373 0.988307 0.446908 
ITEM: TIMESTEP
5200
ITEM: NUMBER OF ATOMS
1
ITEM: BOX BOUNDS ss ss ss
26.3407 73.6264
26.3407 73.6264
-0.004 20.2636
ITEM: ATOMS id xs ys zs c_msd_abov[4] 
2881 0.518606 0.518606 0.98589 0.450529 
ITEM: TIMESTEP
5280
ITEM: NUMBER OF ATOMS
1
ITEM: BOX BOUNDS ss ss ss
26.3407 73.6264
26.3407 73.6264
-0.004 20.2636
ITEM: ATOMS id xs ys zs c_msd_abov[4] 
2881 0.520047 0.520047 0.979693 0.547225 
ITEM: TIMESTEP
5360
ITEM: NUMBER OF ATOMS
1
ITEM: BOX BOUNDS ss ss ss
26.3407 73.6264
26.3407 73.6264
-0.004 20.2636
ITEM: ATOMS id xs ys zs c_msd_abov[4] 
2881 0.521472 0.521472 0.980648 0.522993 
ITEM: TIMESTEP
5440
ITEM: NUMBER OF ATOMS
1
ITEM: BOX BOUNDS ss ss ss
26.3407 73.6264
26.3407 73.6264
-0.004 20.2636
ITEM: ATOMS id xs ys zs c_msd_abov[4] 
2881 0.522695 0.522695 0.98009 0.543465 
ITEM: TIMESTEP
5520
ITEM: NUMBER OF ATOMS
1
ITEM: BOX BOUNDS ss ss ss
26.3407 73.6264
26.3407 73.6264
-0.004 20.2636
ITEM: ATOMS id xs ys zs c_msd_abov[4] 
2881 0.523752 0.523752 0.96661 0.82527 
ITEM: TIMESTEP
5600
ITEM: NUMBER OF ATOMS
1
ITEM: BOX BOUNDS ss ss ss
26.2764 73.7002
26.2764 73.7002
-0.004 19.579
ITEM: ATOMS id xs ys zs c_msd_abov[4] 
2881 0.523392 0.523392 0.993033 0.964679 
ITEM: TIMESTEP
5680
ITEM: NUMBER OF ATOMS
1
ITEM: BOX BOUNDS ss ss ss
26.2764 73.7002
26.2764 73.7002
-0.004 19.579
ITEM: ATOMS id xs ys zs c_msd_abov[4] 
2881 0.520813 0.520813 1.00027 0.809739 
ITEM: TIMESTEP
5760
ITEM: NUMBER OF ATOMS
1
ITEM: BOX BOUNDS ss ss ss
26.2764 73.7002
26.2764 73.7002
-0.004 19.579
ITEM: ATOMS id xs ys zs c_msd_abov[4] 
2881 0.519483 0.519483 0.999284 0.835359 
ITEM: TIMESTEP
5840
ITEM: NUMBER OF ATOMS
1
ITEM: BOX BOUNDS ss ss ss
26.2764 73.7002
26.2764 73.7002
-0.004 19.579
ITEM: ATOMS id xs ys zs c_msd_abov[4] 
2881 0.5204 0.5204 0.987149 1.06747 
ITEM: TIMESTEP
5920
ITEM: NUMBER OF ATOMS
1
ITEM: BOX BOUNDS ss ss ss
26.263 73.6203
26.263 73.6203
-0.004 19.3
ITEM: ATOMS id xs ys zs c_msd_abov[4] 
2881 0.521496 0.521496 0.992967 1.23029 
ITEM: TIMESTEP
6000
ITEM: NUMBER OF ATOMS
1
ITEM: BOX BOUNDS ss ss ss
26.263 73.6203
26.263 73.6203
-0.004 19.3
ITEM: ATOMS id xs ys zs c_msd_abov[4] 
2881 0.521194 0.521194 0.986627 1.35331 
ITEM: TIMESTEP
6080
ITEM: NUMBER OF ATOMS
1
ITEM: BOX BOUNDS ss ss ss
26.263 73.6203
26.263 73.6203
-0.004 19.3
ITEM: ATOMS id xs ys zs c_msd_abov[4] 
2881 0.522775 0.522775 0.987529 1.33567 
ITEM: TIMESTEP
6160
ITEM: NUMBER OF ATOMS
1
ITEM: BOX BOUNDS ss ss ss
26.263 73.6203
26.263 73.6203
-0.004 19.3
ITEM: ATOMS id xs ys zs c_msd_abov[4] 
2881 0.522685 0.522685 0.994666 1.19776 
ITEM: TIMESTEP
6240
ITEM: NUMBER OF ATOMS
1
ITEM: BOX BOUNDS ss ss ss
26.263 73.6203
26.263 73.6203
-0.004 19.3
ITEM: ATOMS id xs ys zs c_msd_abov[4] 
2881 0.522384 0.522384 1.00502 0.997328 
ITEM: TIMESTEP
6320
ITEM: NUMBER OF ATOMS
1
ITEM: BOX BOUNDS ss ss ss
26.263 73.6203
26.263 73.6203
-0.004 19.3
ITEM: ATOMS id xs ys zs c_msd_abov[4] 
2881 0.523338 0.523338 1.02403 0.636125 
ITEM: TIMESTEP
6400
ITEM: NUMBER OF ATOMS
1
ITEM: BOX BOUNDS ss ss ss
26.263 73.6203
26.263 73.6203
-0.004 19.3
ITEM: ATOMS id xs ys zs c_msd_abov[4] 
2881 0.524454 0.524454 1.03828 0.39032 
ITEM: TIMESTEP
6480
ITEM: NUMBER OF ATOMS
1
ITEM: BOX BOUNDS ss ss ss
26.263 73.6203
26.263 73.6203
-0.004 19.3
ITEM: ATOMS id xs ys zs c_msd_abov[4] 
2881 0.525283 0.525283 1.04403 0.327054 
ITEM: TIMESTEP
6560
ITEM: NUMBER OF ATOMS
1
ITEM: BOX BOUNDS ss ss ss
26.2573 73.6955
26.2573 73.6955
-0.004 20.2713
ITEM: ATOMS id xs ys zs c_msd_abov[4] 
2881 0.523996 0.523996 1.00482 0.185137 
ITEM: TIMESTEP
6640
ITEM: NUMBER OF ATOMS
1
ITEM: BOX BOUNDS ss ss ss
26.2573 73.6955
26.2573 73.6955
-0.004 20.2713
ITEM: ATOMS id xs ys zs c_msd_abov[4] 
2881 0.521749 0.521749 1.01457 0.175848 
ITEM: TIMESTEP
6720
ITEM: NUMBER OF ATOMS
1
ITEM: BOX BOUNDS ss ss ss
26.2573 73.6955
26.2573 73.6955
-0.004 20.2713
ITEM: ATOMS id xs ys zs c_msd_abov[4] 
2881 0.519518 0.519518 1.01076 0.151038 
ITEM: TIMESTEP
6800
ITEM: NUMBER OF ATOMS
1
ITEM: BOX BOUNDS ss ss ss
26.2573 73.6955
26.2573 73.6955
-0.004 20.2713
ITEM: ATOMS id xs ys zs c_msd_abov[4] 
2881 0.518527 0.518527 1.00883 0.191951 
ITEM: TIMESTEP
6880
ITEM: NUMBER OF ATOMS
1
ITEM: BOX BOUNDS ss ss ss
26.2573 73.6955
26.2573 73.6955
-0.004 20.2713
ITEM: ATOMS id xs ys zs c_msd_abov[4] 
2881 0.519566 0.519566 1.01838 0.274739 
ITEM: TIMESTEP
6960
ITEM: NUMBER OF ATOMS
1
ITEM: BOX BOUNDS ss ss ss
26.2573 73.6955
26.2573 73.6955
-0.004 20.2713
ITEM: ATOMS id xs ys zs c_msd_abov[4] 
2881 0.52066 0.52066 1.01792 0.244083 
ITEM: TIMESTEP
7040
ITEM: NUMBER OF ATOMS
1
ITEM: BOX BOUNDS ss ss ss
26.2995 73.5929
26.2995 73.5929
-0.004 20.6213
ITEM: ATOMS id xs ys zs c_msd_abov[4] 
2881 0.520324 0.520324 0.990136 0.112283 
ITEM: TIMESTEP
7120
ITEM: NUMBER OF ATOMS
1
ITEM: BOX BOUNDS ss ss ss
26.2995 73.5929
26.2995 73.5929
-0.004 20.6213
ITEM: ATOMS id xs ys zs c_msd_abov[4] 
2881 0.520668 0.520668 0.987624 0.0911223 
ITEM: TIMESTEP
7200
ITEM: NUMBER OF ATOMS
1
ITEM: BOX BOUNDS ss ss ss
26.2995 73.5929
26.2995 73.5929
-0.004 20.6213
ITEM: ATOMS id xs ys zs c_msd_abov[4] 
2881 0.523934 0.523934 0.985489 0.150066 
ITEM: TIMESTEP
7280
ITEM: NUMBER OF ATOMS
1
ITEM: BOX BOUNDS ss ss ss
26.3978 73.7027
26.3978 73.7027
-0.004 20.2229
ITEM: ATOMS id xs ys zs c_msd_abov[4] 
2881 0.521725 0.521725 0.996949 0.267401 
ITEM: TIMESTEP
7360
ITEM: NUMBER OF ATOMS
1
ITEM: BOX BOUNDS ss ss ss
26.3978 73.7027
26.3978 73.7027
-0.004 20.2229
ITEM: ATOMS id xs ys zs c_msd_abov[4] 
2881 0.520514 0.520514 0.98839 0.409095 
ITEM: TIMESTEP
7440
ITEM: NUMBER OF ATOMS
1
ITEM: BOX BOUNDS ss ss ss
26.3978 73.7027
26.3978 73.7027
-0.004 20.2229
ITEM: ATOMS id xs ys zs c_msd_abov[4] 
2881 0.523736 0.523736 0.986872 0.511315 
ITEM: TIMESTEP
7520
ITEM: NUMBER OF ATOMS
1
ITEM: BOX BOUNDS ss ss ss
26.3978 73.7027
26.3978 73.7027
-0.004 20.2229
ITEM: ATOMS id xs ys zs c_msd_abov[4] 
2881 0.525117 0.525117 0.986589 0.569349 
ITEM: TIMESTEP
7600
ITEM: NUMBER OF ATOMS
1
ITEM: BOX BOUNDS ss ss ss
26.3978 73.7027
26.3978 73.7027
-0.004 20.2229
ITEM: ATOMS id xs ys zs c_msd_abov[4] 
2881 0.521242 0.521242 0.987816 0.429204 
ITEM: TIMESTEP
7680
ITEM: NUMBER OF ATOMS
1
ITEM: BOX BOUNDS ss ss ss
26.3978 73.7027
26.3978 73.7027
-0.004 20.2229
ITEM: ATOMS id xs ys zs c_msd_abov[4] 
2881 0.519673 0.519673 0.993415 0.304395 
ITEM: TIMESTEP
7760
ITEM: NUMBER OF ATOMS
1
ITEM: BOX BOUNDS ss ss ss
26.192 73.818
26.192 73.818
-0.004 20.1816
ITEM: ATOMS id xs ys zs c_msd_abov[4] 
2881 0.519592 0.519592 1.00095 0.204353 
ITEM: TIMESTEP
7840
ITEM: NUMBER OF ATOMS
1
ITEM: BOX BOUNDS ss ss ss
26.192 73.818
26.192 73.818
-0.004 20.1816
ITEM: ATOMS id xs ys zs c_msd_abov[4] 
2881 0.517131 0.517131 1.00243 0.283834 
ITEM: TIMESTEP
7920
ITEM: NUMBER OF ATOMS
1
ITEM: BOX BOUNDS ss ss ss
26.192 73.818
26.192 73.818
-0.004 20.1816
ITEM: ATOMS id xs ys zs c_msd_abov[4] 
2881 0.517677 0.517677 1.0047 0.227946 
ITEM: TIMESTEP
8000
ITEM: NUMBER OF ATOMS
1
ITEM: BOX BOUNDS ss ss ss
26.192 73.818
26.192 73.818
-0.004 20.1816
ITEM: ATOMS id xs ys zs c_msd_abov[4] 
2881 0.520307 0.520307 0.995328 0.307258 
ITEM: TIMESTEP
8080
ITEM: NUMBER OF ATOMS
1
ITEM: BOX BOUNDS ss ss ss
26.1449 73.7602
26.1449 73.7602
-0.004 19.8065
ITEM: ATOMS id xs ys zs c_msd_abov[4] 
2881 0.522078 0.522078 0.998296 0.621869 
ITEM: TIMESTEP
8160
ITEM: NUMBER OF ATOMS
1
ITEM: BOX BOUNDS ss ss ss
26.1449 73.7602
26.1449 73.7602
-0.004 19.8065
ITEM: ATOMS id xs ys zs c_msd_abov[4] 
2881 0.519823 0.519823 0.992923 0.738427 
ITEM: TIMESTEP
8240
ITEM: NUMBER OF ATOMS
1
ITEM: BOX BOUNDS ss ss ss
26.1449 73.7602
26.1449 73.7602
-0.004 19.8065
ITEM: ATOMS id xs ys zs c_msd_abov[4] 
2881 0.51915 0.51915 0.983931 0.921797 
ITEM: TIMESTEP
8320
ITEM: NUMBER OF ATOMS
1
ITEM: BOX BOUNDS ss ss ss
26.1449 73.7602
26.1449 73.7602
-0.004 19.8065
ITEM: ATOMS id xs ys zs c_msd_abov[4] 
2881 0.518843 0.518843 0.98017 0.998856 
ITEM: TIMESTEP
8400
ITEM: NUMBER OF ATOMS
1
ITEM: BOX BOUNDS ss ss ss
26.1449 73.7602
26.1449 73.7602
-0.004 19.8065
ITEM: ATOMS id xs ys zs c_msd_abov[4] 
2881 0.519076 0.519076 0.995844 0.692496 
ITEM: TIMESTEP
8480
ITEM: NUMBER OF ATOMS
1
ITEM: BOX BOUNDS ss ss ss
26.2517 73.8309
26.2517 73.8309
-0.004 19.8093
ITEM: ATOMS id xs ys zs c_msd_abov[4] 
2881 0.5189 0.5189 1.0052 0.485722 
ITEM: TIMESTEP
8560
ITEM: NUMBER OF ATOMS
1
ITEM: BOX BOUNDS ss ss ss
26.2517 73.8309
26.2517 73.8309
-0.004 19.8093
ITEM: ATOMS id xs ys zs c_msd_abov[4] 
2881 0.521335 0.521335 1.00933 0.412413 
ITEM: TIMESTEP
8640
ITEM: NUMBER OF ATOMS
1
ITEM: BOX BOUNDS ss ss ss
26.2517 73.8309
26.2517 73.8309
-0.004 19.8093
ITEM: ATOMS id xs ys zs c_msd_abov[4] 
2881 0.522912 0.522912 1.0198 0.282634 
ITEM: TIMESTEP
8720
ITEM: NUMBER OF ATOMS
1
ITEM: BOX BOUNDS ss ss ss
26.2517 73.8309
26.2517 73.8309
-0.004 19.8093
ITEM: ATOMS id xs ys zs c_msd_abov[4] 
2881 0.522536 0.522536 1.0185 0.28392 
ITEM: TIMESTEP
8800
ITEM: NUMBER OF ATOMS
1
ITEM: BOX BOUNDS ss ss ss
26.2517 73.8309
26.2517 73.8309
-0.004 19.8093
ITEM: ATOMS id xs ys zs c_msd_abov[4] 
2881 0.520468 0.520468 1.00533 0.480982 
ITEM: TIMESTEP
8880
ITEM: NUMBER OF ATOMS
1
ITEM: BOX BOUNDS ss ss ss
26.2517 73.8309
26.2517 73.8309
-0.004 19.8093
ITEM: ATOMS id xs ys zs c_msd_abov[4] 
2881 0.518115 0.518115 1.00592 0.48158 
ITEM: TIMESTEP
8960
ITEM: NUMBER OF ATOMS
1
ITEM: BOX BOUNDS ss ss ss
26.2517 73.8309
26.2517 73.8309
-0.004 19.8093
ITEM: ATOMS id xs ys zs c_msd_abov[4] 
2881 0.517449 0.517449 1.0104 0.411225 
ITEM: TIMESTEP
9040
ITEM: NUMBER OF ATOMS
1
ITEM: BOX BOUNDS ss ss ss
26.2517 73.8309
26.2517 73.8309
-0.004 19.8093
ITEM: ATOMS id xs ys zs c_msd_abov[4] 
2881 0.518432 0.518432 1.00121 0.568601 
ITEM: TIMESTEP
9120
ITEM: NUMBER OF ATOMS
1
ITEM: BOX BOUNDS ss ss ss
26.02 73.9276
26.02 73.9276
-0.004 19.6604
ITEM: ATOMS id xs ys zs c_msd_abov[4] 
2881 0.52253 0.52253 0.996613 0.80598 
ITEM: TIMESTEP
9200
ITEM: NUMBER OF ATOMS
1
ITEM: BOX BOUNDS ss ss ss
26.02 73.9276
26.02 73.9276
-0.004 19.6604
ITEM: ATOMS id xs ys zs c_msd_abov[4] 
2881 0.52417 0.52417 0.988982 0.97264 
ITEM: TIMESTEP
9280
ITEM: NUMBER OF ATOMS
1
ITEM: BOX BOUNDS ss ss ss
26.02 73.9276
26.02 73.9276
-0.004 19.6604
ITEM: ATOMS id xs ys zs c_msd_abov[4] 
2881 0.523997 0.523997 0.979795 1.14773 
ITEM: TIMESTEP
9360
ITEM: NUMBER OF ATOMS
1
ITEM: BOX BOUNDS ss ss ss
26.1589 73.9748
26.1589 73.9748
-0.004 19.2438
ITEM: ATOMS id xs ys zs c_msd_abov[4] 
2881 0.522591 0.522591 1.00187 1.13753 
ITEM: TIMESTEP
9440
ITEM: NUMBER OF ATOMS
1
ITEM: BOX BOUNDS ss ss ss
26.1589 73.9748
26.1589 73.9748
-0.004 19.2438
ITEM: ATOMS id xs ys zs c_msd_abov[4] 
2881 0.522917 0.522917 1.01487 0.899836 
ITEM: TIMESTEP
9520
ITEM: NUMBER OF ATOMS
1
ITEM: BOX BOUNDS ss ss ss
26.1589 73.9748
26.1589 73.9748
-0.004 19.2438
ITEM: ATOMS id xs ys zs c_msd_abov[4] 
2881 0.522608 0.522608 1.02824 0.648975 
ITEM: TIMESTEP
9600
ITEM: NUMBER OF ATOMS
1
ITEM: BOX BOUNDS ss ss ss
26.1589 73.9748
26.1589 73.9748
-0.004 19.2438
ITEM: ATOMS id xs ys zs c_msd_abov[4] 
2881 0.522527 0.522527 1.04676 0.336396 
ITEM: TIMESTEP
9680
ITEM: NUMBER OF ATOMS
1
ITEM: BOX BOUNDS ss ss ss
25.7515 74.0184
25.7515 74.0184
-0.004 20.2454
ITEM: ATOMS id xs ys zs c_msd_abov[4] 
2881 0.525475 0.525475 1.00415 0.1943 
ITEM: TIMESTEP
9760
ITEM: NUMBER OF ATOMS
1
ITEM: BOX BOUNDS ss ss ss
25.7515 74.0184
25.7515 74.0184
-0.004 20.2454
ITEM: ATOMS id xs ys zs c_msd_abov[4] 
2881 0.524434 0.524434 0.99595 0.256425 
ITEM: TIMESTEP
9840
ITEM: NUMBER OF ATOMS
1
ITEM: BOX BOUNDS ss ss ss
26.157 73.97
26.157 73.97
-0.004 20.0156
ITEM: ATOMS id xs ys zs c_msd_abov[4] 
2881 0.521275 0.521275 0.999711 0.407311 
ITEM: TIMESTEP
9920
ITEM: NUMBER OF ATOMS
1
ITEM: BOX BOUNDS ss ss ss
26.157 73.97
26.157 73.97
-0.004 20.0156
ITEM: ATOMS id xs ys zs c_msd_abov[4] 
2881 0.521755 0.521755 1.00523 0.321123 
ITEM: TIMESTEP
10000
ITEM: NUMBER OF ATOMS
1
ITEM: BOX BOUNDS ss ss ss
26.157 73.97
26.157 73.97
-0.004 20.0156
ITEM: ATOMS id xs ys zs c_msd_abov[4] 
2881 0.519361 0.519361 1.00764 0.225454 
ITEM: TIMESTEP
10080
ITEM: NUMBER OF ATOMS
1
ITEM: BOX BOUNDS ss ss ss
26.157 73.97
26.157 73.97
-0.004 20.0156
ITEM: ATOMS id xs ys zs c_msd_abov[4] 
2881 0.516856 0.516856 1.0018 0.379323 
ITEM: TIMESTEP
10160
ITEM: NUMBER OF ATOMS
1
ITEM: BOX BOUNDS ss ss ss
26.157 73.97
26.157 73.97
-0.004 20.0156
ITEM: ATOMS id xs ys zs c_msd_abov[4] 
2881 0.518682 0.518682 1.00689 0.243741 
ITEM: TIMESTEP
10240
ITEM: NUMBER OF ATOMS
1
ITEM: BOX BOUNDS ss ss ss
25.8916 74.1093
25.8916 74.1093
-0.004 20.3051
ITEM: ATOMS id xs ys zs c_msd_abov[4] 
2881 0.520639 0.520639 1.00137 0.0629389 
ITEM: TIMESTEP
10320
ITEM: NUMBER OF ATOMS
1
ITEM: BOX BOUNDS ss ss ss
25.8916 74.1093
25.8916 74.1093
-0.004 20.3051
ITEM: ATOMS id xs ys zs c_msd_abov[4] 
2881 0.519494 0.519494 0.999863 0.111243 
ITEM: TIMESTEP
10400
ITEM: NUMBER OF ATOMS
1
ITEM: BOX BOUNDS ss ss ss
25.8916 74.1093
25.8916 74.1093
-0.004 20.3051
ITEM: ATOMS id xs ys zs c_msd_abov[4] 
2881 0.519443 0.519443 1.00141 0.0897456 
ITEM: TIMESTEP
10480
ITEM: NUMBER OF ATOMS
1
ITEM: BOX BOUNDS ss ss ss
25.5552 74.0226
25.5552 74.0226
-0.004 20.3894
ITEM: ATOMS id xs ys zs c_msd_abov[4] 
2881 0.524793 0.524793 1.00325 0.0621819 
ITEM: TIMESTEP
10560
ITEM: NUMBER OF ATOMS
1
ITEM: BOX BOUNDS ss ss ss
25.5552 74.0226
25.5552 74.0226
-0.004 20.3894
ITEM: ATOMS id xs ys zs c_msd_abov[4] 
2881 0.524746 0.524746 1.0007 0.0108525 
ITEM: TIMESTEP
10640
ITEM: NUMBER OF ATOMS
1
ITEM: BOX BOUNDS ss ss ss
25.5552 74.0226
25.5552 74.0226
-0.004 20.3894
ITEM: ATOMS id xs ys zs c_msd_abov[4] 
2881 0.523595 0.523595 1.00021 0.0742236 
ITEM: TIMESTEP
10720
ITEM: NUMBER OF ATOMS
1
ITEM: BOX BOUNDS ss ss ss
25.5552 74.0226
25.5552 74.0226
-0.004 20.3894
ITEM: ATOMS id xs ys zs c_msd_abov[4] 
2881 0.52359 0.52359 1.00412 0.109041 
ITEM: TIMESTEP
10800
ITEM: NUMBER OF ATOMS
1
ITEM: BOX BOUNDS ss ss ss
25.6595 73.9872
25.6595 73.9872
-0.004 20.413
ITEM: ATOMS id xs ys zs c_msd_abov[4] 
2881 0.523842 0.523842 0.99783 0.028597 
ITEM: TIMESTEP
10880
ITEM: NUMBER OF ATOMS
1
ITEM: BOX BOUNDS ss ss ss
25.6595 73.9872
25.6595 73.9872
-0.004 20.413
ITEM: ATOMS id xs ys zs c_msd_abov[4] 
2881 0.523759 0.523759 0.993435 0.116581 
ITEM: TIMESTEP
10960
ITEM: NUMBER OF ATOMS
1
ITEM: BOX BOUNDS ss ss ss
25.6595 73.9872
25.6595 73.9872
-0.004 20.413
ITEM: ATOMS id xs ys zs c_msd_abov[4] 
2881 0.522315 0.522315 0.991908 0.187701 
ITEM: TIMESTEP
11040
ITEM: NUMBER OF ATOMS
1
ITEM: BOX BOUNDS ss ss ss
25.7605 73.8838
25.7605 73.8838
-0.004 20.2424
ITEM: ATOMS id xs ys zs c_msd_abov[4] 
2881 0.522794 0.522794 0.993986 0.288816 
ITEM: TIMESTEP
11120
ITEM: NUMBER OF ATOMS
1
ITEM: BOX BOUNDS ss ss ss
25.7605 73.8838
25.7605 73.8838
-0.004 20.2424
ITEM: ATOMS id xs ys zs c_msd_abov[4] 
2881 0.526201 0.526201 0.991258 0.356659 
ITEM: TIMESTEP
11200
ITEM: NUMBER OF ATOMS
1
ITEM: BOX BOUNDS ss ss ss
25.7605 73.8838
25.7605 73.8838
-0.004 20.2424
ITEM: ATOMS id xs ys zs c_msd_abov[4] 
2881 0.527704 0.527704 0.984413 0.525646 
ITEM: TIMESTEP
11280
ITEM: NUMBER OF ATOMS
1
ITEM: BOX BOUNDS ss ss ss
25.6489 74.0659
25.6489 74.0659
-0.004 19.792
ITEM: ATOMS id xs ys zs c_msd_abov[4] 
2881 0.525476 0.525476 0.994604 0.724426 
ITEM: TIMESTEP
11360
ITEM: NUMBER OF ATOMS
1
ITEM: BOX BOUNDS ss ss ss
25.6489 74.0659
25.6489 74.0659
-0.004 19.792
ITEM: ATOMS id xs ys zs c_msd_abov[4] 
2881 0.527079 0.527079 0.995324 0.741415 
ITEM: TIMESTEP
11440
ITEM: NUMBER OF ATOMS
1
ITEM: BOX BOUNDS ss ss ss
25.6489 74.0659
25.6489 74.0659
-0.004 19.792
ITEM: ATOMS id xs ys zs c_msd_abov[4] 
2881 0.531053 0.531053 0.99199 0.927887 
ITEM: TIMESTEP
11520
ITEM: NUMBER OF ATOMS
1
ITEM: BOX BOUNDS ss ss ss
25.2731 73.9423
25.2731 73.9423
-0.004 19.4852
ITEM: ATOMS id xs ys zs c_msd_abov[4] 
2881 0.534771 0.534771 0.997828 1.05025 
ITEM: TIMESTEP
11600
ITEM: NUMBER OF ATOMS
1
ITEM: BOX BOUNDS ss ss ss
25.2731 73.9423
25.2731 73.9423
-0.004 19.4852
ITEM: ATOMS id xs ys zs c_msd_abov[4] 
2881 0.529 0.529 1.00118 0.887175 
ITEM: TIMESTEP
11680
ITEM: NUMBER OF ATOMS
1
ITEM: BOX BOUNDS ss ss ss
25.2731 73.9423
25.2731 73.9423
-0.004 19.4852
ITEM: ATOMS id xs ys zs c_msd_abov[4] 
2881 0.528181 0.528181 1.01033 0.707551 
ITEM: TIMESTEP
11760
ITEM: NUMBER OF ATOMS
1
ITEM: BOX BOUNDS ss ss ss
25.2731 73.9423
25.2731 73.9423
-0.004 19.4852
ITEM: ATOMS id xs ys zs c_msd_abov[4] 
2881 0.524655 0.524655 1.01418 0.680398 
ITEM: TIMESTEP
11840
ITEM: NUMBER OF ATOMS
1
ITEM: BOX BOUNDS ss ss ss
25.1195 74.0367
25.1195 74.0367
-0.004 19.7823
ITEM: ATOMS id xs ys zs c_msd_abov[4] 
2881 0.520184 0.520184 1.00265 0.815516 
ITEM: TIMESTEP
11920
ITEM: NUMBER OF ATOMS
1
ITEM: BOX BOUNDS ss ss ss
25.1195 74.0367
25.1195 74.0367
-0.004 19.7823
ITEM: ATOMS id xs ys zs c_msd_abov[4] 
2881 0.520337 0.520337 1.01174 0.69542 
ITEM: TIMESTEP
12000
ITEM: NUMBER OF ATOMS
1
ITEM: BOX BOUNDS ss ss ss
25.2873 74.2695
25.2873 74.2695
-0.004 20.0222
ITEM: ATOMS id xs ys zs c_msd_abov[4] 
2881 0.517571 0.517571 0.995482 0.673064 
ITEM: TIMESTEP
12080
ITEM: NUMBER OF ATOMS
1
ITEM: BOX BOUNDS ss ss ss
25.2873 74.2695
25.2873 74.2695
-0.004 20.0222
ITEM: ATOMS id xs ys zs c_msd_abov[4] 
2881 0.518703 0.518703 0.988761 0.724555 
ITEM: TIMESTEP
12160
ITEM: NUMBER OF ATOMS
1
ITEM: BOX BOUNDS ss ss ss
25.2873 74.2695
25.2873 74.2695
-0.004 20.0222
ITEM: ATOMS id xs ys zs c_msd_abov[4] 
2881 0.52251 0.52251 0.998056 0.436274 
ITEM: TIMESTEP
12240
ITEM: NUMBER OF ATOMS
1