ITEM: TIMESTEP
0
ITEM: NUMBER OF ATOMS
1
ITEM: BOX BOUNDS ss ss ss
26.5002 73.4304
26.5002 73.4304
-0.004 20.398
ITEM: ATOMS id xs ys zs c_msd_abov[4] 
2881 0.521728 0.521728 0.999804 0 
ITEM: TIMESTEP
80
ITEM: NUMBER OF ATOMS
1
ITEM: BOX BOUNDS ss ss ss
26.5002 73.4304
26.5002 73.4304
-0.004 20.398
ITEM: ATOMS id xs ys zs c_msd_abov[4] 
2881 0.521728 0.521728 0.98685 0.264294 
ITEM: TIMESTEP
160
ITEM: NUMBER OF ATOMS
1
ITEM: BOX BOUNDS ss ss ss
26.5002 73.4304
26.5002 73.4304
-0.004 20.398
ITEM: ATOMS id xs ys zs c_msd_abov[4] 
2881 0.521728 0.521728 0.970169 0.604616 
ITEM: TIMESTEP
240
ITEM: NUMBER OF ATOMS
1
ITEM: BOX BOUNDS ss ss ss
26.5002 73.4304
26.5002 73.4304
-0.004 20.398
ITEM: ATOMS id xs ys zs c_msd_abov[4] 
2881 0.521728 0.521728 0.969445 0.619392 
ITEM: TIMESTEP
320
ITEM: NUMBER OF ATOMS
1
ITEM: BOX BOUNDS ss ss ss
26.4784 73.4522
26.4784 73.4522
-0.004 19.5864
ITEM: ATOMS id xs ys zs c_msd_abov[4] 
2881 0.521708 0.521708 0.99838 0.839361 
ITEM: TIMESTEP
400
ITEM: NUMBER OF ATOMS
1
ITEM: BOX BOUNDS ss ss ss
26.4784 73.4522
26.4784 73.4522
-0.004 19.5864
ITEM: ATOMS id xs ys zs c_msd_abov[4] 
2881 0.521709 0.521709 0.987047 1.06137 
ITEM: TIMESTEP
480
ITEM: NUMBER OF ATOMS
1
ITEM: BOX BOUNDS ss ss ss
26.4784 73.4522
26.4784 73.4522
-0.004 19.5864
ITEM: ATOMS id xs ys zs c_msd_abov[4] 
2881 0.521712 0.521712 0.992552 0.95353 
ITEM: TIMESTEP
560
ITEM: NUMBER OF ATOMS
1
ITEM: BOX BOUNDS ss ss ss
26.4784 73.4522
26.4784 73.4522
-0.004 19.5864
ITEM: ATOMS id xs ys zs c_msd_abov[4] 
2881 0.521721 0.521721 0.993141 0.941983 
ITEM: TIMESTEP
640
ITEM: NUMBER OF ATOMS
1
ITEM: BOX BOUNDS ss ss ss
26.4784 73.4522
26.4784 73.4522
-0.004 19.5864
ITEM: ATOMS id xs ys zs c_msd_abov[4] 
2881 0.521741 0.521741 0.993369 0.937533 
ITEM: TIMESTEP
720
ITEM: NUMBER OF ATOMS
1
ITEM: BOX BOUNDS ss ss ss
26.4784 73.4522
26.4784 73.4522
-0.004 19.5864
ITEM: ATOMS id xs ys zs c_msd_abov[4] 
2881 0.521746 0.521746 1.00154 0.777437 
ITEM: TIMESTEP
800
ITEM: NUMBER OF ATOMS
1
ITEM: BOX BOUNDS ss ss ss
26.4784 73.4522
26.4784 73.4522
-0.004 19.5864
ITEM: ATOMS id xs ys zs c_msd_abov[4] 
2881 0.521713 0.521713 1.00367 0.73575 
ITEM: TIMESTEP
880
ITEM: NUMBER OF ATOMS
1
ITEM: BOX BOUNDS ss ss ss
26.4784 73.4522
26.4784 73.4522
-0.004 19.5864
ITEM: ATOMS id xs ys zs c_msd_abov[4] 
2881 0.521584 0.521584 1.00683 0.673829 
ITEM: TIMESTEP
960
ITEM: NUMBER OF ATOMS
1
ITEM: BOX BOUNDS ss ss ss
26.4784 73.4522
26.4784 73.4522
-0.004 19.5864
ITEM: ATOMS id xs ys zs c_msd_abov[4] 
2881 0.52142 0.52142 1.01281 0.556908 
ITEM: TIMESTEP
1040
ITEM: NUMBER OF ATOMS
1
ITEM: BOX BOUNDS ss ss ss
26.4784 73.4522
26.4784 73.4522
-0.004 19.5864
ITEM: ATOMS id xs ys zs c_msd_abov[4] 
2881 0.521303 0.521303 1.01401 0.533869 
ITEM: TIMESTEP
1120
ITEM: NUMBER OF ATOMS
1
ITEM: BOX BOUNDS ss ss ss
26.4784 73.4522
26.4784 73.4522
-0.004 19.5864
ITEM: ATOMS id xs ys zs c_msd_abov[4] 
2881 0.521281 0.521281 1.02534 0.312566 
ITEM: TIMESTEP
1200
ITEM: NUMBER OF ATOMS
1
ITEM: BOX BOUNDS ss ss ss
26.4784 73.4522
26.4784 73.4522
-0.004 19.5864
ITEM: ATOMS id xs ys zs c_msd_abov[4] 
2881 0.521296 0.521296 1.03605 0.104965 
ITEM: TIMESTEP
1280
ITEM: NUMBER OF ATOMS
1
ITEM: BOX BOUNDS ss ss ss
26.4187 73.5135
26.4187 73.5135
-0.004 20.272
ITEM: ATOMS id xs ys zs c_msd_abov[4] 
2881 0.521235 0.521235 0.997749 0.169766 
ITEM: TIMESTEP
1360
ITEM: NUMBER OF ATOMS
1
ITEM: BOX BOUNDS ss ss ss
26.4187 73.5135
26.4187 73.5135
-0.004 20.272
ITEM: ATOMS id xs ys zs c_msd_abov[4] 
2881 0.521311 0.521311 1.00513 0.0280451 
ITEM: TIMESTEP
1440
ITEM: NUMBER OF ATOMS
1
ITEM: BOX BOUNDS ss ss ss
26.4187 73.5135
26.4187 73.5135
-0.004 20.272
ITEM: ATOMS id xs ys zs c_msd_abov[4] 
2881 0.521327 0.521327 1.01745 0.232699 
ITEM: TIMESTEP
1520
ITEM: NUMBER OF ATOMS
1
ITEM: BOX BOUNDS ss ss ss
26.4187 73.5135
26.4187 73.5135
-0.004 20.272
ITEM: ATOMS id xs ys zs c_msd_abov[4] 
2881 0.521276 0.521276 1.01502 0.18414 
ITEM: TIMESTEP
1600
ITEM: NUMBER OF ATOMS
1
ITEM: BOX BOUNDS ss ss ss
26.4187 73.5135
26.4187 73.5135
-0.004 20.272
ITEM: ATOMS id xs ys zs c_msd_abov[4] 
2881 0.521363 0.521363 1.01613 0.205897 
ITEM: TIMESTEP
1680
ITEM: NUMBER OF ATOMS
1
ITEM: BOX BOUNDS ss ss ss
26.4187 73.5135
26.4187 73.5135
-0.004 20.272
ITEM: ATOMS id xs ys zs c_msd_abov[4] 
2881 0.521593 0.521593 1.0193 0.269326 
ITEM: TIMESTEP
1760
ITEM: NUMBER OF ATOMS
1
ITEM: BOX BOUNDS ss ss ss
26.4187 73.5135
26.4187 73.5135
-0.004 20.272
ITEM: ATOMS id xs ys zs c_msd_abov[4] 
2881 0.52187 0.52187 1.00718 0.0283658 
ITEM: TIMESTEP
1840
ITEM: NUMBER OF ATOMS
1
ITEM: BOX BOUNDS ss ss ss
26.4187 73.5135
26.4187 73.5135
-0.004 20.272
ITEM: ATOMS id xs ys zs c_msd_abov[4] 
2881 0.52233 0.52233 0.997969 0.169644 
ITEM: TIMESTEP
1920
ITEM: NUMBER OF ATOMS
1
ITEM: BOX BOUNDS ss ss ss
26.4187 73.5135
26.4187 73.5135
-0.004 20.272
ITEM: ATOMS id xs ys zs c_msd_abov[4] 
2881 0.522535 0.522535 0.998367 0.166309 
ITEM: TIMESTEP
2000
ITEM: NUMBER OF ATOMS
1
ITEM: BOX BOUNDS ss ss ss
26.4096 73.5165
26.4096 73.5165
-0.004 20.1788
ITEM: ATOMS id xs ys zs c_msd_abov[4] 
2881 0.522468 0.522468 0.992664 0.366936 
ITEM: TIMESTEP
2080
ITEM: NUMBER OF ATOMS
1
ITEM: BOX BOUNDS ss ss ss
26.4096 73.5165
26.4096 73.5165
-0.004 20.1788
ITEM: ATOMS id xs ys zs c_msd_abov[4] 
2881 0.522184 0.522184 0.981688 0.585739 
ITEM: TIMESTEP
2160
ITEM: NUMBER OF ATOMS
1
ITEM: BOX BOUNDS ss ss ss
26.4096 73.5165
26.4096 73.5165
-0.004 20.1788
ITEM: ATOMS id xs ys zs c_msd_abov[4] 
2881 0.521912 0.521912 0.977372 0.672091 
ITEM: TIMESTEP
2240
ITEM: NUMBER OF ATOMS
1
ITEM: BOX BOUNDS ss ss ss
26.4096 73.5165
26.4096 73.5165
-0.004 20.1788
ITEM: ATOMS id xs ys zs c_msd_abov[4] 
2881 0.521416 0.521416 0.967281 0.875785 
ITEM: TIMESTEP
2320
ITEM: NUMBER OF ATOMS
1
ITEM: BOX BOUNDS ss ss ss
26.4096 73.5165
26.4096 73.5165
-0.004 20.1788
ITEM: ATOMS id xs ys zs c_msd_abov[4] 
2881 0.520983 0.520983 0.965783 0.90707 
ITEM: TIMESTEP
2400
ITEM: NUMBER OF ATOMS
1
ITEM: BOX BOUNDS ss ss ss
26.4096 73.5165
26.4096 73.5165
-0.004 20.1788
ITEM: ATOMS id xs ys zs c_msd_abov[4] 
2881 0.521513 0.521513 0.971046 0.799698 
ITEM: TIMESTEP
2480
ITEM: NUMBER OF ATOMS
1
ITEM: BOX BOUNDS ss ss ss
26.4096 73.5165
26.4096 73.5165
-0.004 20.1788
ITEM: ATOMS id xs ys zs c_msd_abov[4] 
2881 0.522086 0.522086 0.962136 0.97977 
ITEM: TIMESTEP
2560
ITEM: NUMBER OF ATOMS
1
ITEM: BOX BOUNDS ss ss ss
26.4096 73.5165
26.4096 73.5165
-0.004 20.1788
ITEM: ATOMS id xs ys zs c_msd_abov[4] 
2881 0.522568 0.522568 0.953811 1.14892 
ITEM: TIMESTEP
2640
ITEM: NUMBER OF ATOMS
1
ITEM: BOX BOUNDS ss ss ss
26.4096 73.5165
26.4096 73.5165
-0.004 20.1788
ITEM: ATOMS id xs ys zs c_msd_abov[4] 
2881 0.523233 0.523233 0.959689 1.03392 
ITEM: TIMESTEP
2720
ITEM: NUMBER OF ATOMS
1
ITEM: BOX BOUNDS ss ss ss
26.4096 73.5165
26.4096 73.5165
-0.004 20.1788
ITEM: ATOMS id xs ys zs c_msd_abov[4] 
2881 0.523187 0.523187 0.961524 0.996748 
ITEM: TIMESTEP
2800
ITEM: NUMBER OF ATOMS
1
ITEM: BOX BOUNDS ss ss ss
26.4096 73.5165
26.4096 73.5165
-0.004 20.1788
ITEM: ATOMS id xs ys zs c_msd_abov[4] 
2881 0.522154 0.522154 0.963461 0.953186 
ITEM: TIMESTEP
2880
ITEM: NUMBER OF ATOMS
1
ITEM: BOX BOUNDS ss ss ss
26.4096 73.5165
26.4096 73.5165
-0.004 20.1788
ITEM: ATOMS id xs ys zs c_msd_abov[4] 
2881 0.521248 0.521248 0.967275 0.876206 
ITEM: TIMESTEP
2960
ITEM: NUMBER OF ATOMS
1
ITEM: BOX BOUNDS ss ss ss
26.4096 73.5165
26.4096 73.5165
-0.004 20.1788
ITEM: ATOMS id xs ys zs c_msd_abov[4] 
2881 0.520584 0.520584 0.965326 0.918028 
ITEM: TIMESTEP
3040
ITEM: NUMBER OF ATOMS
1
ITEM: BOX BOUNDS ss ss ss
26.4096 73.5165
26.4096 73.5165
-0.004 20.1788
ITEM: ATOMS id xs ys zs c_msd_abov[4] 
2881 0.520621 0.520621 0.971274 0.7982 
ITEM: TIMESTEP
3120
ITEM: NUMBER OF ATOMS
1
ITEM: BOX BOUNDS ss ss ss
26.4096 73.5165
26.4096 73.5165
-0.004 20.1788
ITEM: ATOMS id xs ys zs c_msd_abov[4] 
2881 0.520927 0.520927 0.981424 0.59236 
ITEM: TIMESTEP
3200
ITEM: NUMBER OF ATOMS
1
ITEM: BOX BOUNDS ss ss ss
26.4096 73.5165
26.4096 73.5165
-0.004 20.1788
ITEM: ATOMS id xs ys zs c_msd_abov[4] 
2881 0.52041 0.52041 0.980152 0.621728 
ITEM: TIMESTEP
3280
ITEM: NUMBER OF ATOMS
1
ITEM: BOX BOUNDS ss ss ss
26.3919 73.5382
26.3919 73.5382
-0.004 19.7595
ITEM: ATOMS id xs ys zs c_msd_abov[4] 
2881 0.51924 0.51924 1.00365 0.584536 
ITEM: TIMESTEP
3360
ITEM: NUMBER OF ATOMS
1
ITEM: BOX BOUNDS ss ss ss
26.3919 73.5382
26.3919 73.5382
-0.004 19.7595
ITEM: ATOMS id xs ys zs c_msd_abov[4] 
2881 0.519648 0.519648 1.01836 0.302309 
ITEM: TIMESTEP
3440
ITEM: NUMBER OF ATOMS
1
ITEM: BOX BOUNDS ss ss ss
26.3919 73.5382
26.3919 73.5382
-0.004 19.7595
ITEM: ATOMS id xs ys zs c_msd_abov[4] 
2881 0.520745 0.520745 1.02315 0.18673 
ITEM: TIMESTEP
3520
ITEM: NUMBER OF ATOMS
1
ITEM: BOX BOUNDS ss ss ss
26.3919 73.5382
26.3919 73.5382
-0.004 19.7595
ITEM: ATOMS id xs ys zs c_msd_abov[4] 
2881 0.521508 0.521508 1.02647 0.111683 
ITEM: TIMESTEP
3600
ITEM: NUMBER OF ATOMS
1
ITEM: BOX BOUNDS ss ss ss
26.3919 73.5382
26.3919 73.5382
-0.004 19.7595
ITEM: ATOMS id xs ys zs c_msd_abov[4] 
2881 0.521556 0.521556 1.02533 0.133988 
ITEM: TIMESTEP
3680
ITEM: NUMBER OF ATOMS
1
ITEM: BOX BOUNDS ss ss ss
26.3919 73.5382
26.3919 73.5382
-0.004 19.7595
ITEM: ATOMS id xs ys zs c_msd_abov[4] 
2881 0.521153 0.521153 1.01283 0.382237 
ITEM: TIMESTEP
3760
ITEM: NUMBER OF ATOMS
1
ITEM: BOX BOUNDS ss ss ss
26.3919 73.5382
26.3919 73.5382
-0.004 19.7595
ITEM: ATOMS id xs ys zs c_msd_abov[4] 
2881 0.520354 0.520354 1.01076 0.430452 
ITEM: TIMESTEP
3840
ITEM: NUMBER OF ATOMS
1
ITEM: BOX BOUNDS ss ss ss
26.2186 73.6919
26.2186 73.6919
-0.004 20.0375
ITEM: ATOMS id xs ys zs c_msd_abov[4] 
2881 0.520406 0.520406 1.00332 0.302458 
ITEM: TIMESTEP
3920
ITEM: NUMBER OF ATOMS
1
ITEM: BOX BOUNDS ss ss ss
26.2186 73.6919
26.2186 73.6919
-0.004 20.0375
ITEM: ATOMS id xs ys zs c_msd_abov[4] 
2881 0.521213 0.521213 1.00465 0.265368 
ITEM: TIMESTEP
4000
ITEM: NUMBER OF ATOMS
1
ITEM: BOX BOUNDS ss ss ss
26.2186 73.6919
26.2186 73.6919
-0.004 20.0375
ITEM: ATOMS id xs ys zs c_msd_abov[4] 
2881 0.522427 0.522427 1.00274 0.305549 
ITEM: TIMESTEP
4080
ITEM: NUMBER OF ATOMS
1
ITEM: BOX BOUNDS ss ss ss
26.2186 73.6919
26.2186 73.6919
-0.004 20.0375
ITEM: ATOMS id xs ys zs c_msd_abov[4] 
2881 0.523478 0.523478 0.996336 0.446379 
ITEM: TIMESTEP
4160
ITEM: NUMBER OF ATOMS
1
ITEM: BOX BOUNDS ss ss ss
26.2186 73.6919
26.2186 73.6919
-0.004 20.0375
ITEM: ATOMS id xs ys zs c_msd_abov[4] 
2881 0.523586 0.523586 0.992855 0.515654 
ITEM: TIMESTEP
4240
ITEM: NUMBER OF ATOMS
1
ITEM: BOX BOUNDS ss ss ss
26.2186 73.6919
26.2186 73.6919
-0.004 20.0375
ITEM: ATOMS id xs ys zs c_msd_abov[4] 
2881 0.523725 0.523725 0.996196 0.453786 
ITEM: TIMESTEP
4320
ITEM: NUMBER OF ATOMS
1
ITEM: BOX BOUNDS ss ss ss
26.2186 73.6919
26.2186 73.6919
-0.004 20.0375
ITEM: ATOMS id xs ys zs c_msd_abov[4] 
2881 0.524253 0.524253 0.998152 0.429511 
ITEM: TIMESTEP
4400
ITEM: NUMBER OF ATOMS
1
ITEM: BOX BOUNDS ss ss ss
26.2186 73.6919
26.2186 73.6919
-0.004 20.0375
ITEM: ATOMS id xs ys zs c_msd_abov[4] 
2881 0.524663 0.524663 1.00041 0.401332 
ITEM: TIMESTEP
4480
ITEM: NUMBER OF ATOMS
1
ITEM: BOX BOUNDS ss ss ss
26.2186 73.6919
26.2186 73.6919
-0.004 20.0375
ITEM: ATOMS id xs ys zs c_msd_abov[4] 
2881 0.524459 0.524459 1.00301 0.349635 
ITEM: TIMESTEP
4560
ITEM: NUMBER OF ATOMS
1
ITEM: BOX BOUNDS ss ss ss
26.2186 73.6919
26.2186 73.6919
-0.004 20.0375
ITEM: ATOMS id xs ys zs c_msd_abov[4] 
2881 0.523441 0.523441 1.00502 0.281638 
ITEM: TIMESTEP
4640
ITEM: NUMBER OF ATOMS
1
ITEM: BOX BOUNDS ss ss ss
26.4329 73.4967
26.4329 73.4967
-0.004 20.193
ITEM: ATOMS id xs ys zs c_msd_abov[4] 
2881 0.522207 0.522207 1.00397 0.125794 
ITEM: TIMESTEP
4720
ITEM: NUMBER OF ATOMS
1
ITEM: BOX BOUNDS ss ss ss
26.4329 73.4967
26.4329 73.4967
-0.004 20.193
ITEM: ATOMS id xs ys zs c_msd_abov[4] 
2881 0.521652 0.521652 1.00926 0.0140224 
ITEM: TIMESTEP
4800
ITEM: NUMBER OF ATOMS
1
ITEM: BOX BOUNDS ss ss ss
26.4329 73.4967
26.4329 73.4967
-0.004 20.193
ITEM: ATOMS id xs ys zs c_msd_abov[4] 
2881 0.521824 0.521824 1.00496 0.101355 
ITEM: TIMESTEP
4880
ITEM: NUMBER OF ATOMS
1
ITEM: BOX BOUNDS ss ss ss
26.3416 73.6182
26.3416 73.6182
-0.004 20.283
ITEM: ATOMS id xs ys zs c_msd_abov[4] 
2881 0.521182 0.521182 0.996621 0.179585 
ITEM: TIMESTEP
4960
ITEM: NUMBER OF ATOMS
1
ITEM: BOX BOUNDS ss ss ss
26.3416 73.6182
26.3416 73.6182
-0.004 20.283
ITEM: ATOMS id xs ys zs c_msd_abov[4] 
2881 0.519276 0.519276 0.997678 0.206344 
ITEM: TIMESTEP
5040
ITEM: NUMBER OF ATOMS
1
ITEM: BOX BOUNDS ss ss ss
26.3416 73.6182
26.3416 73.6182
-0.004 20.283
ITEM: ATOMS id xs ys zs c_msd_abov[4] 
2881 0.517504 0.517504 0.992317 0.366429 
ITEM: TIMESTEP
5120
ITEM: NUMBER OF ATOMS
1
ITEM: BOX BOUNDS ss ss ss
26.3416 73.6182
26.3416 73.6182
-0.004 20.283
ITEM: ATOMS id xs ys zs c_msd_abov[4] 
2881 0.517394 0.517394 0.987548 0.446083 
ITEM: TIMESTEP
5200
ITEM: NUMBER OF ATOMS
1
ITEM: BOX BOUNDS ss ss ss
26.3416 73.6182
26.3416 73.6182
-0.004 20.283
ITEM: ATOMS id xs ys zs c_msd_abov[4] 
2881 0.518639 0.518639 0.98519 0.44718 
ITEM: TIMESTEP
5280
ITEM: NUMBER OF ATOMS
1
ITEM: BOX BOUNDS ss ss ss
26.3416 73.6182
26.3416 73.6182
-0.004 20.283
ITEM: ATOMS id xs ys zs c_msd_abov[4] 
2881 0.5201 0.5201 0.978841 0.545744 
ITEM: TIMESTEP
5360
ITEM: NUMBER OF ATOMS
1
ITEM: BOX BOUNDS ss ss ss
26.3416 73.6182
26.3416 73.6182
-0.004 20.283
ITEM: ATOMS id xs ys zs c_msd_abov[4] 
2881 0.521537 0.521537 0.979782 0.521458 
ITEM: TIMESTEP
5440
ITEM: NUMBER OF ATOMS
1
ITEM: BOX BOUNDS ss ss ss
26.3416 73.6182
26.3416 73.6182
-0.004 20.283
ITEM: ATOMS id xs ys zs c_msd_abov[4] 
2881 0.522778 0.522778 0.979242 0.541671 
ITEM: TIMESTEP
5520
ITEM: NUMBER OF ATOMS
1
ITEM: BOX BOUNDS ss ss ss
26.273 73.7451
26.273 73.7451
-0.004 19.589
ITEM: ATOMS id xs ys zs c_msd_abov[4] 
2881 0.523148 0.523148 0.999796 0.827419 
ITEM: TIMESTEP
5600
ITEM: NUMBER OF ATOMS
1
ITEM: BOX BOUNDS ss ss ss
26.273 73.7451
26.273 73.7451
-0.004 19.589
ITEM: ATOMS id xs ys zs c_msd_abov[4] 
2881 0.522976 0.522976 0.992255 0.970364 
ITEM: TIMESTEP
5680
ITEM: NUMBER OF ATOMS
1
ITEM: BOX BOUNDS ss ss ss
26.273 73.7451
26.273 73.7451
-0.004 19.589
ITEM: ATOMS id xs ys zs c_msd_abov[4] 
2881 0.520363 0.520363 0.999574 0.813418 
ITEM: TIMESTEP
5760
ITEM: NUMBER OF ATOMS
1
ITEM: BOX BOUNDS ss ss ss
26.273 73.7451
26.273 73.7451
-0.004 19.589
ITEM: ATOMS id xs ys zs c_msd_abov[4] 
2881 0.518993 0.518993 0.998736 0.836362 
ITEM: TIMESTEP
5840
ITEM: NUMBER OF ATOMS
1
ITEM: BOX BOUNDS ss ss ss
26.2466 73.6202
26.2466 73.6202
-0.004 19.3324
ITEM: ATOMS id xs ys zs c_msd_abov[4] 
2881 0.521551 0.521551 0.999793 1.06648 
ITEM: TIMESTEP
5920
ITEM: NUMBER OF ATOMS
1
ITEM: BOX BOUNDS ss ss ss
26.2466 73.6202
26.2466 73.6202
-0.004 19.3324
ITEM: ATOMS id xs ys zs c_msd_abov[4] 
2881 0.521641 0.521641 0.991249 1.23138 
ITEM: TIMESTEP
6000
ITEM: NUMBER OF ATOMS
1
ITEM: BOX BOUNDS ss ss ss
26.2466 73.6202
26.2466 73.6202
-0.004 19.3324
ITEM: ATOMS id xs ys zs c_msd_abov[4] 
2881 0.52133 0.52133 0.984837 1.35604 
ITEM: TIMESTEP
6080
ITEM: NUMBER OF ATOMS
1
ITEM: BOX BOUNDS ss ss ss
26.2466 73.6202
26.2466 73.6202
-0.004 19.3324
ITEM: ATOMS id xs ys zs c_msd_abov[4] 
2881 0.522944 0.522944 0.985588 1.3412 
ITEM: TIMESTEP
6160
ITEM: NUMBER OF ATOMS
1
ITEM: BOX BOUNDS ss ss ss
26.2466 73.6202
26.2466 73.6202
-0.004 19.3324
ITEM: ATOMS id xs ys zs c_msd_abov[4] 
2881 0.522834 0.522834 0.992715 1.20321 
ITEM: TIMESTEP
6240
ITEM: NUMBER OF ATOMS
1
ITEM: BOX BOUNDS ss ss ss
26.2466 73.6202
26.2466 73.6202
-0.004 19.3324
ITEM: ATOMS id xs ys zs c_msd_abov[4] 
2881 0.522513 0.522513 1.00302 1.00334 
ITEM: TIMESTEP
6320
ITEM: NUMBER OF ATOMS
1
ITEM: BOX BOUNDS ss ss ss
26.2466 73.6202
26.2466 73.6202
-0.004 19.3324
ITEM: ATOMS id xs ys zs c_msd_abov[4] 
2881 0.523509 0.523509 1.02204 0.641474 
ITEM: TIMESTEP
6400
ITEM: NUMBER OF ATOMS
1
ITEM: BOX BOUNDS ss ss ss
26.2466 73.6202
26.2466 73.6202
-0.004 19.3324
ITEM: ATOMS id xs ys zs c_msd_abov[4] 
2881 0.524698 0.524698 1.03635 0.395895 
ITEM: TIMESTEP
6480
ITEM: NUMBER OF ATOMS
1
ITEM: BOX BOUNDS ss ss ss
26.2466 73.6202
26.2466 73.6202
-0.004 19.3324
ITEM: ATOMS id xs ys zs c_msd_abov[4] 
2881 0.525634 0.525634 1.04185 0.341581 
ITEM: TIMESTEP
6560
ITEM: NUMBER OF ATOMS
1
ITEM: BOX BOUNDS ss ss ss
26.2433 73.7039
26.2433 73.7039
-0.004 20.2966
ITEM: ATOMS id xs ys zs c_msd_abov[4] 
2881 0.524322 0.524322 1.00278 0.206276 
ITEM: TIMESTEP
6640
ITEM: NUMBER OF ATOMS
1
ITEM: BOX BOUNDS ss ss ss
26.2433 73.7039
26.2433 73.7039
-0.004 20.2966
ITEM: ATOMS id xs ys zs c_msd_abov[4] 
2881 0.522065 0.522065 1.01257 0.165731 
ITEM: TIMESTEP
6720
ITEM: NUMBER OF ATOMS
1
ITEM: BOX BOUNDS ss ss ss
26.2433 73.7039
26.2433 73.7039
-0.004 20.2966
ITEM: ATOMS id xs ys zs c_msd_abov[4] 
2881 0.519816 0.519816 1.00871 0.127896 
ITEM: TIMESTEP
6800
ITEM: NUMBER OF ATOMS
1
ITEM: BOX BOUNDS ss ss ss
26.2433 73.7039
26.2433 73.7039
-0.004 20.2966
ITEM: ATOMS id xs ys zs c_msd_abov[4] 
2881 0.518748 0.518748 1.0067 0.176291 
ITEM: TIMESTEP
6880
ITEM: NUMBER OF ATOMS
1
ITEM: BOX BOUNDS ss ss ss
26.2433 73.7039
26.2433 73.7039
-0.004 20.2966
ITEM: ATOMS id xs ys zs c_msd_abov[4] 
2881 0.519526 0.519526 1.01651 0.266267 
ITEM: TIMESTEP
6960
ITEM: NUMBER OF ATOMS
1
ITEM: BOX BOUNDS ss ss ss
26.2433 73.7039
26.2433 73.7039
-0.004 20.2966
ITEM: ATOMS id xs ys zs c_msd_abov[4] 
2881 0.520427 0.520427 1.01624 0.239715 
ITEM: TIMESTEP
7040
ITEM: NUMBER OF ATOMS
1
ITEM: BOX BOUNDS ss ss ss
26.1527 73.6237
26.1527 73.6237
-0.004 20.6081
ITEM: ATOMS id xs ys zs c_msd_abov[4] 
2881 0.521013 0.521013 0.990401 0.141279 
ITEM: TIMESTEP
7120
ITEM: NUMBER OF ATOMS
1
ITEM: BOX BOUNDS ss ss ss
26.1527 73.6237
26.1527 73.6237
-0.004 20.6081
ITEM: ATOMS id xs ys zs c_msd_abov[4] 
2881 0.521223 0.521223 0.98932 0.126395 
ITEM: TIMESTEP
7200
ITEM: NUMBER OF ATOMS
1
ITEM: BOX BOUNDS ss ss ss
26.1527 73.6237
26.1527 73.6237
-0.004 20.6081
ITEM: ATOMS id xs ys zs c_msd_abov[4] 
2881 0.524755 0.524755 0.989232 0.111114 
ITEM: TIMESTEP
7280
ITEM: NUMBER OF ATOMS
1
ITEM: BOX BOUNDS ss ss ss
26.3627 73.6974
26.3627 73.6974
-0.004 20.3122
ITEM: ATOMS id xs ys zs c_msd_abov[4] 
2881 0.522132 0.522132 0.997338 0.188731 
ITEM: TIMESTEP
7360
ITEM: NUMBER OF ATOMS
1
ITEM: BOX BOUNDS ss ss ss
26.3627 73.6974
26.3627 73.6974
-0.004 20.3122
ITEM: ATOMS id xs ys zs c_msd_abov[4] 
2881 0.520457 0.520457 0.990039 0.284771 
ITEM: TIMESTEP
7440
ITEM: NUMBER OF ATOMS
1
ITEM: BOX BOUNDS ss ss ss
26.3627 73.6974
26.3627 73.6974
-0.004 20.3122
ITEM: ATOMS id xs ys zs c_msd_abov[4] 
2881 0.523367 0.523367 0.987309 0.401242 
ITEM: TIMESTEP
7520
ITEM: NUMBER OF ATOMS
1
ITEM: BOX BOUNDS ss ss ss
26.3627 73.6974
26.3627 73.6974
-0.004 20.3122
ITEM: ATOMS id xs ys zs c_msd_abov[4] 
2881 0.525143 0.525143 0.984239 0.521753 
ITEM: TIMESTEP
7600
ITEM: NUMBER OF ATOMS
1
ITEM: BOX BOUNDS ss ss ss
26.3627 73.6974
26.3627 73.6974
-0.004 20.3122
ITEM: ATOMS id xs ys zs c_msd_abov[4] 
2881 0.52128 0.52128 0.983516 0.423191 
ITEM: TIMESTEP
7680
ITEM: NUMBER OF ATOMS
1
ITEM: BOX BOUNDS ss ss ss
26.2927 73.7561
26.2927 73.7561
-0.004 19.9848
ITEM: ATOMS id xs ys zs c_msd_abov[4] 
2881 0.51952 0.51952 1.00217 0.368987 
ITEM: TIMESTEP
7760
ITEM: NUMBER OF ATOMS
1
ITEM: BOX BOUNDS ss ss ss
26.2927 73.7561
26.2927 73.7561
-0.004 19.9848
ITEM: ATOMS id xs ys zs c_msd_abov[4] 
2881 0.519388 0.519388 1.00637 0.287511 
ITEM: TIMESTEP
7840
ITEM: NUMBER OF ATOMS
1
ITEM: BOX BOUNDS ss ss ss
26.2927 73.7561
26.2927 73.7561
-0.004 19.9848
ITEM: ATOMS id xs ys zs c_msd_abov[4] 
2881 0.517415 0.517415 1.00821 0.309853 
ITEM: TIMESTEP
7920
ITEM: NUMBER OF ATOMS
1
ITEM: BOX BOUNDS ss ss ss
26.2927 73.7561
26.2927 73.7561
-0.004 19.9848
ITEM: ATOMS id xs ys zs c_msd_abov[4] 
2881 0.51796 0.51796 1.00978 0.262772 
ITEM: TIMESTEP
8000
ITEM: NUMBER OF ATOMS
1
ITEM: BOX BOUNDS ss ss ss
26.2927 73.7561
26.2927 73.7561
-0.004 19.9848
ITEM: ATOMS id xs ys zs c_msd_abov[4] 
2881 0.520335 0.520335 1.00074 0.39441 
ITEM: TIMESTEP
8080
ITEM: NUMBER OF ATOMS
1
ITEM: BOX BOUNDS ss ss ss
26.1459 73.7962
26.1459 73.7962
-0.004 19.8872
ITEM: ATOMS id xs ys zs c_msd_abov[4] 
2881 0.520994 0.520994 0.994037 0.625705 
ITEM: TIMESTEP
8160
ITEM: NUMBER OF ATOMS
1
ITEM: BOX BOUNDS ss ss ss
26.1459 73.7962
26.1459 73.7962
-0.004 19.8872
ITEM: ATOMS id xs ys zs c_msd_abov[4] 
2881 0.518442 0.518442 0.989917 0.732743 
ITEM: TIMESTEP
8240
ITEM: NUMBER OF ATOMS
1
ITEM: BOX BOUNDS ss ss ss
26.1873 73.7019
26.1873 73.7019
-0.004 19.5444
ITEM: ATOMS id xs ys zs c_msd_abov[4] 
2881 0.518834 0.518834 0.99819 0.908657 
ITEM: TIMESTEP
8320
ITEM: NUMBER OF ATOMS
1
ITEM: BOX BOUNDS ss ss ss
26.1873 73.7019
26.1873 73.7019
-0.004 19.5444
ITEM: ATOMS id xs ys zs c_msd_abov[4] 
2881 0.519004 0.519004 0.993622 0.993524 
ITEM: TIMESTEP
8400
ITEM: NUMBER OF ATOMS
1
ITEM: BOX BOUNDS ss ss ss
26.1873 73.7019
26.1873 73.7019
-0.004 19.5444
ITEM: ATOMS id xs ys zs c_msd_abov[4] 
2881 0.519014 0.519014 1.01032 0.676317 
ITEM: TIMESTEP
8480
ITEM: NUMBER OF ATOMS
1
ITEM: BOX BOUNDS ss ss ss
26.1873 73.7019
26.1873 73.7019
-0.004 19.5444
ITEM: ATOMS id xs ys zs c_msd_abov[4] 
2881 0.520384 0.520384 1.01972 0.475179 
ITEM: TIMESTEP
8560
ITEM: NUMBER OF ATOMS
1
ITEM: BOX BOUNDS ss ss ss
26.193 73.92
26.193 73.92
-0.004 19.9448
ITEM: ATOMS id xs ys zs c_msd_abov[4] 
2881 0.519152 0.519152 1.00158 0.418059 
ITEM: TIMESTEP
8640
ITEM: NUMBER OF ATOMS
1
ITEM: BOX BOUNDS ss ss ss
26.193 73.92
26.193 73.92
-0.004 19.9448
ITEM: ATOMS id xs ys zs c_msd_abov[4] 
2881 0.51917 0.51917 1.01347 0.181444 
ITEM: TIMESTEP
8720
ITEM: NUMBER OF ATOMS
1
ITEM: BOX BOUNDS ss ss ss
26.193 73.92
26.193 73.92
-0.004 19.9448
ITEM: ATOMS id xs ys zs c_msd_abov[4] 
2881 0.519039 0.519039 1.01283 0.195187 
ITEM: TIMESTEP
8800
ITEM: NUMBER OF ATOMS
1
ITEM: BOX BOUNDS ss ss ss
26.193 73.92
26.193 73.92
-0.004 19.9448
ITEM: ATOMS id xs ys zs c_msd_abov[4] 
2881 0.519235 0.519235 0.999302 0.463338 
ITEM: TIMESTEP
8880
ITEM: NUMBER OF ATOMS
1
ITEM: BOX BOUNDS ss ss ss
26.193 73.92
26.193 73.92
-0.004 19.9448
ITEM: ATOMS id xs ys zs c_msd_abov[4] 
2881 0.518378 0.518378 1.00016 0.451914 
ITEM: TIMESTEP
8960
ITEM: NUMBER OF ATOMS
1
ITEM: BOX BOUNDS ss ss ss
25.9749 74.3207
25.9749 74.3207
-0.004 19.9538
ITEM: ATOMS id xs ys zs c_msd_abov[4] 
2881 0.515959 0.515959 1.0032 0.387573 
ITEM: TIMESTEP
9040
ITEM: NUMBER OF ATOMS
1
ITEM: BOX BOUNDS ss ss ss
25.9749 74.3207
25.9749 74.3207
-0.004 19.9538
ITEM: ATOMS id xs ys zs c_msd_abov[4] 
2881 0.51693 0.51693 0.995083 0.538992 
ITEM: TIMESTEP
9120
ITEM: NUMBER OF ATOMS
1
ITEM: BOX BOUNDS ss ss ss
25.9749 74.3207
25.9749 74.3207
-0.004 19.9538
ITEM: ATOMS id xs ys zs c_msd_abov[4] 
2881 0.518825 0.518825 0.984031 0.765877 
ITEM: TIMESTEP
9200
ITEM: NUMBER OF ATOMS
1
ITEM: BOX BOUNDS ss ss ss
25.9749 74.3207
25.9749 74.3207
-0.004 19.9538
ITEM: ATOMS id xs ys zs c_msd_abov[4] 
2881 0.521156 0.521156 0.973079 1.01212 
ITEM: TIMESTEP
9280
ITEM: NUMBER OF ATOMS
1
ITEM: BOX BOUNDS ss ss ss
26.0995 74.5933
26.0995 74.5933
-0.004 19.3467
ITEM: ATOMS id xs ys zs c_msd_abov[4] 
2881 0.518404 0.518404 0.992949 1.23702 
ITEM: TIMESTEP
9360
ITEM: NUMBER OF ATOMS
1
ITEM: BOX BOUNDS ss ss ss
26.0995 74.5933
26.0995 74.5933
-0.004 19.3467
ITEM: ATOMS id xs ys zs c_msd_abov[4] 
2881 0.519079 0.519079 0.997944 1.16021 
ITEM: TIMESTEP
9440
ITEM: NUMBER OF ATOMS
1
ITEM: BOX BOUNDS ss ss ss
26.0995 74.5933
26.0995 74.5933
-0.004 19.3467
ITEM: ATOMS id xs ys zs c_msd_abov[4] 
2881 0.520075 0.520075 1.00807 1.00918 
ITEM: TIMESTEP
9520
ITEM: NUMBER OF ATOMS
1
ITEM: BOX BOUNDS ss ss ss
25.9729 74.4352
25.9729 74.4352
-0.004 19.5862
ITEM: ATOMS id xs ys zs c_msd_abov[4] 
2881 0.522942 0.522942 1.00319 0.879969 
ITEM: TIMESTEP
9600
ITEM: NUMBER OF ATOMS
1
ITEM: BOX BOUNDS ss ss ss
25.9729 74.4352
25.9729 74.4352
-0.004 19.5862
ITEM: ATOMS id xs ys zs c_msd_abov[4] 
2881 0.521659 0.521659 1.01758 0.599202 
ITEM: TIMESTEP
9680
ITEM: NUMBER OF ATOMS
1
ITEM: BOX BOUNDS ss ss ss
25.9729 74.4352
25.9729 74.4352
-0.004 19.5862
ITEM: ATOMS id xs ys zs c_msd_abov[4] 
2881 0.521611 0.521611 1.02857 0.451085 
ITEM: TIMESTEP
9760
ITEM: NUMBER OF ATOMS
1
ITEM: BOX BOUNDS ss ss ss
25.9765 74.1822
25.9765 74.1822
-0.004 20.1623
ITEM: ATOMS id xs ys zs c_msd_abov[4] 
2881 0.524217 0.524217 0.999026 0.447393 
ITEM: TIMESTEP
9840
ITEM: NUMBER OF ATOMS
1
ITEM: BOX BOUNDS ss ss ss
25.9765 74.1822
25.9765 74.1822
-0.004 20.1623
ITEM: ATOMS id xs ys zs c_msd_abov[4] 
2881 0.522453 0.522453 1.00066 0.331787 
ITEM: TIMESTEP
9920
ITEM: NUMBER OF ATOMS
1
ITEM: BOX BOUNDS ss ss ss
25.9765 74.1822
25.9765 74.1822
-0.004 20.1623
ITEM: ATOMS id xs ys zs c_msd_abov[4] 
2881 0.520066 0.520066 0.997688 0.291606 
ITEM: TIMESTEP
10000
ITEM: NUMBER OF ATOMS
1
ITEM: BOX BOUNDS ss ss ss
25.7731 74.1048
25.7731 74.1048
-0.004 20.0787
ITEM: ATOMS id xs ys zs c_msd_abov[4] 
2881 0.520643 0.520643 0.995179 0.417775 
ITEM: TIMESTEP
10080
ITEM: NUMBER OF ATOMS
1
ITEM: BOX BOUNDS ss ss ss
25.7731 74.1048
25.7731 74.1048
-0.004 20.0787
ITEM: ATOMS id xs ys zs c_msd_abov[4] 
2881 0.518567 0.518567 0.996446 0.440151 
ITEM: TIMESTEP
10160
ITEM: NUMBER OF ATOMS
1
ITEM: BOX BOUNDS ss ss ss
26.0161 73.9797
26.0161 73.9797
-0.004 20.1305
ITEM: ATOMS id xs ys zs c_msd_abov[4] 
2881 0.519883 0.519883 0.999984 0.268036 
ITEM: TIMESTEP
10240
ITEM: NUMBER OF ATOMS
1
ITEM: BOX BOUNDS ss ss ss
26.0161 73.9797
26.0161 73.9797
-0.004 20.1305
ITEM: ATOMS id xs ys zs c_msd_abov[4] 
2881 0.523178 0.523178 1.00126 0.296224 
ITEM: TIMESTEP
10320
ITEM: NUMBER OF ATOMS
1
ITEM: BOX BOUNDS ss ss ss
26.0161 73.9797
26.0161 73.9797
-0.004 20.1305
ITEM: ATOMS id xs ys zs c_msd_abov[4] 
2881 0.522485 0.522485 1.00237 0.251537 
ITEM: TIMESTEP
10400
ITEM: NUMBER OF ATOMS
1
ITEM: BOX BOUNDS ss ss ss
26.0161 73.9797
26.0161 73.9797
-0.004 20.1305
ITEM: ATOMS id xs ys zs c_msd_abov[4] 
2881 0.522488 0.522488 1.01433 0.131754 
ITEM: TIMESTEP
10480
ITEM: NUMBER OF ATOMS
1
ITEM: BOX BOUNDS ss ss ss
25.892 74.0211
25.892 74.0211
-0.004 20.6684
ITEM: ATOMS id xs ys zs c_msd_abov[4] 
2881 0.524577 0.524577 1.00081 0.363882 
ITEM: TIMESTEP
10560
ITEM: NUMBER OF ATOMS
1
ITEM: BOX BOUNDS ss ss ss
25.892 74.0211
25.892 74.0211
-0.004 20.6684
ITEM: ATOMS id xs ys zs c_msd_abov[4] 
2881 0.522461 0.522461 1.00641 0.413574 
ITEM: TIMESTEP
10640
ITEM: NUMBER OF ATOMS
1
ITEM: BOX BOUNDS ss ss ss
25.928 74.0713
25.928 74.0713
-0.004 20.679
ITEM: ATOMS id xs ys zs c_msd_abov[4] 
2881 0.518377 0.518377 0.999712 0.313249 
ITEM: TIMESTEP
10720
ITEM: NUMBER OF ATOMS
1
ITEM: BOX BOUNDS ss ss ss
25.928 74.0713
25.928 74.0713
-0.004 20.679
ITEM: ATOMS id xs ys zs c_msd_abov[4] 
2881 0.519419 0.519419 0.99955 0.284802 
ITEM: TIMESTEP
10800
ITEM: NUMBER OF ATOMS
1
ITEM: BOX BOUNDS ss ss ss
25.928 74.0713
25.928 74.0713
-0.004 20.679
ITEM: ATOMS id xs ys zs c_msd_abov[4] 
2881 0.522301 0.522301 0.998674 0.286269 
ITEM: TIMESTEP
10880
ITEM: NUMBER OF ATOMS
1
ITEM: BOX BOUNDS ss ss ss
25.928 74.0713
25.928 74.0713
-0.004 20.679
ITEM: ATOMS id xs ys zs c_msd_abov[4] 
2881 0.522591 0.522591 0.988713 0.15353 
ITEM: TIMESTEP
10960
ITEM: NUMBER OF ATOMS
1
ITEM: BOX BOUNDS ss ss ss
25.8468 74.0803
25.8468 74.0803
-0.004 20.2072
ITEM: ATOMS id xs ys zs c_msd_abov[4] 
2881 0.521946 0.521946 0.997795 0.237245 
ITEM: TIMESTEP
11040
ITEM: NUMBER OF ATOMS
1
ITEM: BOX BOUNDS ss ss ss
25.8468 74.0803
25.8468 74.0803
-0.004 20.2072
ITEM: ATOMS id xs ys zs c_msd_abov[4] 
2881 0.522249 0.522249 0.98089 0.577695 
ITEM: TIMESTEP
11120
ITEM: NUMBER OF ATOMS
1
ITEM: BOX BOUNDS ss ss ss
25.8468 74.0803
25.8468 74.0803
-0.004 20.2072
ITEM: ATOMS id xs ys zs c_msd_abov[4] 
2881 0.524116 0.524116 0.958724 1.04053 
ITEM: TIMESTEP
11200
ITEM: NUMBER OF ATOMS
1
ITEM: BOX BOUNDS ss ss ss
25.9282 73.9109
25.9282 73.9109
-0.004 19.3332
ITEM: ATOMS id xs ys zs c_msd_abov[4] 
2881 0.527421 0.527421 0.991705 1.27147 
ITEM: TIMESTEP
11280
ITEM: NUMBER OF ATOMS
1
ITEM: BOX BOUNDS ss ss ss
25.9282 73.9109
25.9282 73.9109
-0.004 19.3332
ITEM: ATOMS id xs ys zs c_msd_abov[4] 
2881 0.528297 0.528297 0.994142 1.24475 
ITEM: TIMESTEP
11360
ITEM: NUMBER OF ATOMS
1
ITEM: BOX BOUNDS ss ss ss
26.0075 74.0441
26.0075 74.0441
-0.004 19.2256
ITEM: ATOMS id xs ys zs c_msd_abov[4] 
2881 0.525444 0.525444 0.998369 1.25615 
ITEM: TIMESTEP
11440
ITEM: NUMBER OF ATOMS
1
ITEM: BOX BOUNDS ss ss ss
26.0075 74.0441
26.0075 74.0441
-0.004 19.2256
ITEM: ATOMS id xs ys zs c_msd_abov[4] 
2881 0.524314 0.524314 1.00819 1.05318 
ITEM: TIMESTEP
11520
ITEM: NUMBER OF ATOMS
1
ITEM: BOX BOUNDS ss ss ss
26.0264 74.0003
26.0264 74.0003
-0.004 19.5614
ITEM: ATOMS id xs ys zs c_msd_abov[4] 
2881 0.522506 0.522506 1.00474 0.755477 
ITEM: TIMESTEP
11600
ITEM: NUMBER OF ATOMS
1
ITEM: BOX BOUNDS ss ss ss
26.0264 74.0003
26.0264 74.0003
-0.004 19.5614
ITEM: ATOMS id xs ys zs c_msd_abov[4] 
2881 0.519445 0.519445 1.00707 0.696378 
ITEM: TIMESTEP
11680
ITEM: NUMBER OF ATOMS
1
ITEM: BOX BOUNDS ss ss ss
25.9118 74.0862
25.9118 74.0862
-0.004 19.6718
ITEM: ATOMS id xs ys zs c_msd_abov[4] 
2881 0.518214 0.518214 0.999848 0.741255 
ITEM: TIMESTEP
11760
ITEM: NUMBER OF ATOMS
1
ITEM: BOX BOUNDS ss ss ss
25.9118 74.0862
25.9118 74.0862
-0.004 19.6718
ITEM: ATOMS id xs ys zs c_msd_abov[4] 
2881 0.51681 0.51681 1.01159 0.55339 
ITEM: TIMESTEP
11840
ITEM: NUMBER OF ATOMS
1
ITEM: BOX BOUNDS ss ss ss
25.9759 73.9541
25.9759 73.9541
-0.004 20.0301
ITEM: ATOMS id xs ys zs c_msd_abov[4] 
2881 0.515617 0.515617 1.00583 0.455709 
ITEM: TIMESTEP
11920
ITEM: NUMBER OF ATOMS
1
ITEM: BOX BOUNDS ss ss ss
25.9759 73.9541
25.9759 73.9541
-0.004 20.0301
ITEM: ATOMS id xs ys zs c_msd_abov[4] 
2881 0.516643 0.516643 1.00633 0.392835 
ITEM: TIMESTEP
12000
ITEM: NUMBER OF ATOMS
1
ITEM: BOX BOUNDS ss ss ss
25.9759 73.9541
25.9759 73.9541
-0.004 20.0301
ITEM: ATOMS id xs ys zs c_msd_abov[4] 
2881 0.520231 0.520231 0.994476 0.479711 
ITEM: TIMESTEP
12080
ITEM: NUMBER OF ATOMS
1
ITEM: BOX BOUNDS ss ss ss
25.9759 73.9541
25.9759 73.9541
-0.004 20.0301
ITEM: ATOMS id xs ys zs c_msd_abov[4] 
2881 0.522621 0.522621 0.978535 0.799316 
ITEM: TIMESTEP
12160
ITEM: NUMBER OF ATOMS
1
ITEM: BOX BOUNDS ss ss ss
25.6796 74.1057
25.6796 74.1057