ITEM: TIMESTEP
0
ITEM: NUMBER OF ATOMS
1
ITEM: BOX BOUNDS ss ss ss
26.5002 73.4304
26.5002 73.4304
-0.004 20.398
ITEM: ATOMS id xs ys zs c_msd_abov[4] 
2881 0.521728 0.521728 0.999804 0 
ITEM: TIMESTEP
80
ITEM: NUMBER OF ATOMS
1
ITEM: BOX BOUNDS ss ss ss
26.5002 73.4304
26.5002 73.4304
-0.004 20.398
ITEM: ATOMS id xs ys zs c_msd_abov[4] 
2881 0.521728 0.521728 0.986855 0.264182 
ITEM: TIMESTEP
160
ITEM: NUMBER OF ATOMS
1
ITEM: BOX BOUNDS ss ss ss
26.5002 73.4304
26.5002 73.4304
-0.004 20.398
ITEM: ATOMS id xs ys zs c_msd_abov[4] 
2881 0.521728 0.521728 0.970238 0.603208 
ITEM: TIMESTEP
240
ITEM: NUMBER OF ATOMS
1
ITEM: BOX BOUNDS ss ss ss
26.5002 73.4304
26.5002 73.4304
-0.004 20.398
ITEM: ATOMS id xs ys zs c_msd_abov[4] 
2881 0.521728 0.521728 0.969562 0.617003 
ITEM: TIMESTEP
320
ITEM: NUMBER OF ATOMS
1
ITEM: BOX BOUNDS ss ss ss
26.4807 73.4499
26.4807 73.4499
-0.004 19.5843
ITEM: ATOMS id xs ys zs c_msd_abov[4] 
2881 0.52171 0.52171 0.9988 0.833183 
ITEM: TIMESTEP
400
ITEM: NUMBER OF ATOMS
1
ITEM: BOX BOUNDS ss ss ss
26.4807 73.4499
26.4807 73.4499
-0.004 19.5843
ITEM: ATOMS id xs ys zs c_msd_abov[4] 
2881 0.521711 0.521711 0.987684 1.05093 
ITEM: TIMESTEP
480
ITEM: NUMBER OF ATOMS
1
ITEM: BOX BOUNDS ss ss ss
26.4807 73.4499
26.4807 73.4499
-0.004 19.5843
ITEM: ATOMS id xs ys zs c_msd_abov[4] 
2881 0.521714 0.521714 0.992809 0.950551 
ITEM: TIMESTEP
560
ITEM: NUMBER OF ATOMS
1
ITEM: BOX BOUNDS ss ss ss
26.4807 73.4499
26.4807 73.4499
-0.004 19.5843
ITEM: ATOMS id xs ys zs c_msd_abov[4] 
2881 0.521723 0.521723 0.993374 0.939482 
ITEM: TIMESTEP
640
ITEM: NUMBER OF ATOMS
1
ITEM: BOX BOUNDS ss ss ss
26.4807 73.4499
26.4807 73.4499
-0.004 19.5843
ITEM: ATOMS id xs ys zs c_msd_abov[4] 
2881 0.521741 0.521741 0.993598 0.935099 
ITEM: TIMESTEP
720
ITEM: NUMBER OF ATOMS
1
ITEM: BOX BOUNDS ss ss ss
26.4807 73.4499
26.4807 73.4499
-0.004 19.5843
ITEM: ATOMS id xs ys zs c_msd_abov[4] 
2881 0.521746 0.521746 1.00127 0.784855 
ITEM: TIMESTEP
800
ITEM: NUMBER OF ATOMS
1
ITEM: BOX BOUNDS ss ss ss
26.4807 73.4499
26.4807 73.4499
-0.004 19.5843
ITEM: ATOMS id xs ys zs c_msd_abov[4] 
2881 0.521714 0.521714 1.00331 0.744887 
ITEM: TIMESTEP
880
ITEM: NUMBER OF ATOMS
1
ITEM: BOX BOUNDS ss ss ss
26.4807 73.4499
26.4807 73.4499
-0.004 19.5843
ITEM: ATOMS id xs ys zs c_msd_abov[4] 
2881 0.521597 0.521597 1.00653 0.681764 
ITEM: TIMESTEP
960
ITEM: NUMBER OF ATOMS
1
ITEM: BOX BOUNDS ss ss ss
26.4807 73.4499
26.4807 73.4499
-0.004 19.5843
ITEM: ATOMS id xs ys zs c_msd_abov[4] 
2881 0.521449 0.521449 1.01216 0.571846 
ITEM: TIMESTEP
1040
ITEM: NUMBER OF ATOMS
1
ITEM: BOX BOUNDS ss ss ss
26.4807 73.4499
26.4807 73.4499
-0.004 19.5843
ITEM: ATOMS id xs ys zs c_msd_abov[4] 
2881 0.52134 0.52134 1.01299 0.555791 
ITEM: TIMESTEP
1120
ITEM: NUMBER OF ATOMS
1
ITEM: BOX BOUNDS ss ss ss
26.4807 73.4499
26.4807 73.4499
-0.004 19.5843
ITEM: ATOMS id xs ys zs c_msd_abov[4] 
2881 0.521324 0.521324 1.02307 0.358736 
ITEM: TIMESTEP
1200
ITEM: NUMBER OF ATOMS
1
ITEM: BOX BOUNDS ss ss ss
26.4807 73.4499
26.4807 73.4499
-0.004 19.5843
ITEM: ATOMS id xs ys zs c_msd_abov[4] 
2881 0.521345 0.521345 1.03272 0.170431 
ITEM: TIMESTEP
1280
ITEM: NUMBER OF ATOMS
1
ITEM: BOX BOUNDS ss ss ss
26.4807 73.4499
26.4807 73.4499
-0.004 19.5843
ITEM: ATOMS id xs ys zs c_msd_abov[4] 
2881 0.521361 0.521361 1.02963 0.230419 
ITEM: TIMESTEP
1360
ITEM: NUMBER OF ATOMS
1
ITEM: BOX BOUNDS ss ss ss
26.4807 73.4499
26.4807 73.4499
-0.004 19.5843
ITEM: ATOMS id xs ys zs c_msd_abov[4] 
2881 0.521417 0.521417 1.03657 0.0953253 
ITEM: TIMESTEP
1440
ITEM: NUMBER OF ATOMS
1
ITEM: BOX BOUNDS ss ss ss
26.4807 73.4499
26.4807 73.4499
-0.004 19.5843
ITEM: ATOMS id xs ys zs c_msd_abov[4] 
2881 0.521419 0.521419 1.048 0.13204 
ITEM: TIMESTEP
1520
ITEM: NUMBER OF ATOMS
1
ITEM: BOX BOUNDS ss ss ss
26.4807 73.4499
26.4807 73.4499
-0.004 19.5843
ITEM: ATOMS id xs ys zs c_msd_abov[4] 
2881 0.521372 0.521372 1.04573 0.0888758 
ITEM: TIMESTEP
1600
ITEM: NUMBER OF ATOMS
1
ITEM: BOX BOUNDS ss ss ss
26.4807 73.4499
26.4807 73.4499
-0.004 19.5843
ITEM: ATOMS id xs ys zs c_msd_abov[4] 
2881 0.521448 0.521448 1.04679 0.108275 
ITEM: TIMESTEP
1680
ITEM: NUMBER OF ATOMS
1
ITEM: BOX BOUNDS ss ss ss
26.4807 73.4499
26.4807 73.4499
-0.004 19.5843
ITEM: ATOMS id xs ys zs c_msd_abov[4] 
2881 0.521638 0.521638 1.04931 0.156349 
ITEM: TIMESTEP
1760
ITEM: NUMBER OF ATOMS
1
ITEM: BOX BOUNDS ss ss ss
26.4807 73.4499
26.4807 73.4499
-0.004 19.5843
ITEM: ATOMS id xs ys zs c_msd_abov[4] 
2881 0.521867 0.521867 1.03788 0.0685177 
ITEM: TIMESTEP
1840
ITEM: NUMBER OF ATOMS
1
ITEM: BOX BOUNDS ss ss ss
26.4807 73.4499
26.4807 73.4499
-0.004 19.5843
ITEM: ATOMS id xs ys zs c_msd_abov[4] 
2881 0.522229 0.522229 1.03027 0.219411 
ITEM: TIMESTEP
1920
ITEM: NUMBER OF ATOMS
1
ITEM: BOX BOUNDS ss ss ss
26.4807 73.4499
26.4807 73.4499
-0.004 19.5843
ITEM: ATOMS id xs ys zs c_msd_abov[4] 
2881 0.522408 0.522408 1.03099 0.207844 
ITEM: TIMESTEP
2000
ITEM: NUMBER OF ATOMS
1
ITEM: BOX BOUNDS ss ss ss
26.4807 73.4499
26.4807 73.4499
-0.004 19.5843
ITEM: ATOMS id xs ys zs c_msd_abov[4] 
2881 0.522352 0.522352 1.02143 0.392201 
ITEM: TIMESTEP
2080
ITEM: NUMBER OF ATOMS
1
ITEM: BOX BOUNDS ss ss ss
26.4926 73.4373
26.4926 73.4373
-0.004 19.936
ITEM: ATOMS id xs ys zs c_msd_abov[4] 
2881 0.522209 0.522209 0.993163 0.595137 
ITEM: TIMESTEP
2160
ITEM: NUMBER OF ATOMS
1
ITEM: BOX BOUNDS ss ss ss
26.4926 73.4373
26.4926 73.4373
-0.004 19.936
ITEM: ATOMS id xs ys zs c_msd_abov[4] 
2881 0.521963 0.521963 0.98893 0.678879 
ITEM: TIMESTEP
2240
ITEM: NUMBER OF ATOMS
1
ITEM: BOX BOUNDS ss ss ss
26.4926 73.4373
26.4926 73.4373
-0.004 19.936
ITEM: ATOMS id xs ys zs c_msd_abov[4] 
2881 0.521518 0.521518 0.980413 0.848628 
ITEM: TIMESTEP
2320
ITEM: NUMBER OF ATOMS
1
ITEM: BOX BOUNDS ss ss ss
26.4926 73.4373
26.4926 73.4373
-0.004 19.936
ITEM: ATOMS id xs ys zs c_msd_abov[4] 
2881 0.521204 0.521204 0.978546 0.886427 
ITEM: TIMESTEP
2400
ITEM: NUMBER OF ATOMS
1
ITEM: BOX BOUNDS ss ss ss
26.4926 73.4373
26.4926 73.4373
-0.004 19.936
ITEM: ATOMS id xs ys zs c_msd_abov[4] 
2881 0.52157 0.52157 0.981831 0.820305 
ITEM: TIMESTEP
2480
ITEM: NUMBER OF ATOMS
1
ITEM: BOX BOUNDS ss ss ss
26.4926 73.4373
26.4926 73.4373
-0.004 19.936
ITEM: ATOMS id xs ys zs c_msd_abov[4] 
2881 0.52194 0.52194 0.97491 0.958347 
ITEM: TIMESTEP
2560
ITEM: NUMBER OF ATOMS
1
ITEM: BOX BOUNDS ss ss ss
26.4926 73.4373
26.4926 73.4373
-0.004 19.936
ITEM: ATOMS id xs ys zs c_msd_abov[4] 
2881 0.522272 0.522272 0.970723 1.04236 
ITEM: TIMESTEP
2640
ITEM: NUMBER OF ATOMS
1
ITEM: BOX BOUNDS ss ss ss
26.4926 73.4373
26.4926 73.4373
-0.004 19.936
ITEM: ATOMS id xs ys zs c_msd_abov[4] 
2881 0.522711 0.522711 0.976766 0.923538 
ITEM: TIMESTEP
2720
ITEM: NUMBER OF ATOMS
1
ITEM: BOX BOUNDS ss ss ss
26.4926 73.4373
26.4926 73.4373
-0.004 19.936
ITEM: ATOMS id xs ys zs c_msd_abov[4] 
2881 0.522663 0.522663 0.978386 0.891106 
ITEM: TIMESTEP
2800
ITEM: NUMBER OF ATOMS
1
ITEM: BOX BOUNDS ss ss ss
26.4926 73.4373
26.4926 73.4373
-0.004 19.936
ITEM: ATOMS id xs ys zs c_msd_abov[4] 
2881 0.521992 0.521992 0.981221 0.832589 
ITEM: TIMESTEP
2880
ITEM: NUMBER OF ATOMS
1
ITEM: BOX BOUNDS ss ss ss
26.4926 73.4373
26.4926 73.4373
-0.004 19.936
ITEM: ATOMS id xs ys zs c_msd_abov[4] 
2881 0.52137 0.52137 0.984943 0.758574 
ITEM: TIMESTEP
2960
ITEM: NUMBER OF ATOMS
1
ITEM: BOX BOUNDS ss ss ss
26.4926 73.4373
26.4926 73.4373
-0.004 19.936
ITEM: ATOMS id xs ys zs c_msd_abov[4] 
2881 0.520888 0.520888 0.982148 0.815829 
ITEM: TIMESTEP
3040
ITEM: NUMBER OF ATOMS
1
ITEM: BOX BOUNDS ss ss ss
26.4926 73.4373
26.4926 73.4373
-0.004 19.936
ITEM: ATOMS id xs ys zs c_msd_abov[4] 
2881 0.520883 0.520883 0.986486 0.729594 
ITEM: TIMESTEP
3120
ITEM: NUMBER OF ATOMS
1
ITEM: BOX BOUNDS ss ss ss
26.4926 73.4373
26.4926 73.4373
-0.004 19.936
ITEM: ATOMS id xs ys zs c_msd_abov[4] 
2881 0.521123 0.521123 0.99372 0.584562 
ITEM: TIMESTEP
3200
ITEM: NUMBER OF ATOMS
1
ITEM: BOX BOUNDS ss ss ss
26.4926 73.4373
26.4926 73.4373
-0.004 19.936
ITEM: ATOMS id xs ys zs c_msd_abov[4] 
2881 0.520877 0.520877 0.99117 0.636541 
ITEM: TIMESTEP
3280
ITEM: NUMBER OF ATOMS
1
ITEM: BOX BOUNDS ss ss ss
26.4926 73.4373
26.4926 73.4373
-0.004 19.936
ITEM: ATOMS id xs ys zs c_msd_abov[4] 
2881 0.52027 0.52027 0.994385 0.578092 
ITEM: TIMESTEP
3360
ITEM: NUMBER OF ATOMS
1
ITEM: BOX BOUNDS ss ss ss
26.4926 73.4373
26.4926 73.4373
-0.004 19.936
ITEM: ATOMS id xs ys zs c_msd_abov[4] 
2881 0.520348 0.520348 1.00493 0.371098 
ITEM: TIMESTEP
3440
ITEM: NUMBER OF ATOMS
1
ITEM: BOX BOUNDS ss ss ss
26.4926 73.4373
26.4926 73.4373
-0.004 19.936
ITEM: ATOMS id xs ys zs c_msd_abov[4] 
2881 0.520798 0.520798 1.00803 0.304192 
ITEM: TIMESTEP
3520
ITEM: NUMBER OF ATOMS
1
ITEM: BOX BOUNDS ss ss ss
26.4926 73.4373
26.4926 73.4373
-0.004 19.936
ITEM: ATOMS id xs ys zs c_msd_abov[4] 
2881 0.521338 0.521338 1.0123 0.214326 
ITEM: TIMESTEP
3600
ITEM: NUMBER OF ATOMS
1
ITEM: BOX BOUNDS ss ss ss
26.4926 73.4373
26.4926 73.4373
-0.004 19.936
ITEM: ATOMS id xs ys zs c_msd_abov[4] 
2881 0.521741 0.521741 1.01287 0.20125 
ITEM: TIMESTEP
3680
ITEM: NUMBER OF ATOMS
1
ITEM: BOX BOUNDS ss ss ss
26.4926 73.4373
26.4926 73.4373
-0.004 19.936
ITEM: ATOMS id xs ys zs c_msd_abov[4] 
2881 0.521739 0.521739 1.00374 0.383353 
ITEM: TIMESTEP
3760
ITEM: NUMBER OF ATOMS
1
ITEM: BOX BOUNDS ss ss ss
26.4926 73.4373
26.4926 73.4373
-0.004 19.936
ITEM: ATOMS id xs ys zs c_msd_abov[4] 
2881 0.521219 0.521219 1.00269 0.405773 
ITEM: TIMESTEP
3840
ITEM: NUMBER OF ATOMS
1
ITEM: BOX BOUNDS ss ss ss
26.4926 73.4373
26.4926 73.4373
-0.004 19.936
ITEM: ATOMS id xs ys zs c_msd_abov[4] 
2881 0.521444 0.521444 1.00656 0.327743 
ITEM: TIMESTEP
3920
ITEM: NUMBER OF ATOMS
1
ITEM: BOX BOUNDS ss ss ss
26.4926 73.4373
26.4926 73.4373
-0.004 19.936
ITEM: ATOMS id xs ys zs c_msd_abov[4] 
2881 0.52218 0.52218 1.00069 0.44516 
ITEM: TIMESTEP
4000
ITEM: NUMBER OF ATOMS
1
ITEM: BOX BOUNDS ss ss ss
26.4926 73.4373
26.4926 73.4373
-0.004 19.936
ITEM: ATOMS id xs ys zs c_msd_abov[4] 
2881 0.522768 0.522768 0.99345 0.592585 
ITEM: TIMESTEP
4080
ITEM: NUMBER OF ATOMS
1
ITEM: BOX BOUNDS ss ss ss
26.4926 73.4373
26.4926 73.4373
-0.004 19.936
ITEM: ATOMS id xs ys zs c_msd_abov[4] 
2881 0.523185 0.523185 0.990508 0.654401 
ITEM: TIMESTEP
4160
ITEM: NUMBER OF ATOMS
1
ITEM: BOX BOUNDS ss ss ss
26.4926 73.4373
26.4926 73.4373
-0.004 19.936
ITEM: ATOMS id xs ys zs c_msd_abov[4] 
2881 0.523501 0.523501 0.986035 0.74575 
ITEM: TIMESTEP
4240
ITEM: NUMBER OF ATOMS
1
ITEM: BOX BOUNDS ss ss ss
26.4926 73.4373
26.4926 73.4373
-0.004 19.936
ITEM: ATOMS id xs ys zs c_msd_abov[4] 
2881 0.523273 0.523273 0.985 0.763971 
ITEM: TIMESTEP
4320
ITEM: NUMBER OF ATOMS
1
ITEM: BOX BOUNDS ss ss ss
26.4926 73.4373
26.4926 73.4373
-0.004 19.936
ITEM: ATOMS id xs ys zs c_msd_abov[4] 
2881 0.523079 0.523079 0.988525 0.692592 
ITEM: TIMESTEP
4400
ITEM: NUMBER OF ATOMS
1
ITEM: BOX BOUNDS ss ss ss
26.4926 73.4373
26.4926 73.4373
-0.004 19.936
ITEM: ATOMS id xs ys zs c_msd_abov[4] 
2881 0.522992 0.522992 0.991514 0.632743 
ITEM: TIMESTEP
4480
ITEM: NUMBER OF ATOMS
1
ITEM: BOX BOUNDS ss ss ss
26.4926 73.4373
26.4926 73.4373
-0.004 19.936
ITEM: ATOMS id xs ys zs c_msd_abov[4] 
2881 0.522506 0.522506 0.997458 0.511243 
ITEM: TIMESTEP
4560
ITEM: NUMBER OF ATOMS
1
ITEM: BOX BOUNDS ss ss ss
26.4926 73.4373
26.4926 73.4373
-0.004 19.936
ITEM: ATOMS id xs ys zs c_msd_abov[4] 
2881 0.521984 0.521984 1.00592 0.340305 
ITEM: TIMESTEP
4640
ITEM: NUMBER OF ATOMS
1
ITEM: BOX BOUNDS ss ss ss
26.4926 73.4373
26.4926 73.4373
-0.004 19.936
ITEM: ATOMS id xs ys zs c_msd_abov[4] 
2881 0.521531 0.521531 1.01073 0.244271 
ITEM: TIMESTEP
4720
ITEM: NUMBER OF ATOMS
1
ITEM: BOX BOUNDS ss ss ss
26.4926 73.4373
26.4926 73.4373
-0.004 19.936
ITEM: ATOMS id xs ys zs c_msd_abov[4] 
2881 0.521133 0.521133 1.01278 0.20691 
ITEM: TIMESTEP
4800
ITEM: NUMBER OF ATOMS
1
ITEM: BOX BOUNDS ss ss ss
26.4926 73.4373
26.4926 73.4373
-0.004 19.936
ITEM: ATOMS id xs ys zs c_msd_abov[4] 
2881 0.521184 0.521184 1.01229 0.215884 
ITEM: TIMESTEP
4880
ITEM: NUMBER OF ATOMS
1
ITEM: BOX BOUNDS ss ss ss
26.4926 73.4373
26.4926 73.4373
-0.004 19.936
ITEM: ATOMS id xs ys zs c_msd_abov[4] 
2881 0.5214 0.5214 1.00977 0.264138 
ITEM: TIMESTEP
4960
ITEM: NUMBER OF ATOMS
1
ITEM: BOX BOUNDS ss ss ss
26.4926 73.4373
26.4926 73.4373
-0.004 19.936
ITEM: ATOMS id xs ys zs c_msd_abov[4] 
2881 0.521024 0.521024 1.01056 0.251728 
ITEM: TIMESTEP
5040
ITEM: NUMBER OF ATOMS
1
ITEM: BOX BOUNDS ss ss ss
26.4926 73.4373
26.4926 73.4373
-0.004 19.936
ITEM: ATOMS id xs ys zs c_msd_abov[4] 
2881 0.520497 0.520497 1.00878 0.294553 
ITEM: TIMESTEP
5120
ITEM: NUMBER OF ATOMS
1
ITEM: BOX BOUNDS ss ss ss
26.4926 73.4373
26.4926 73.4373
-0.004 19.936
ITEM: ATOMS id xs ys zs c_msd_abov[4] 
2881 0.520416 0.520416 0.999825 0.469595 
ITEM: TIMESTEP
5200
ITEM: NUMBER OF ATOMS
1
ITEM: BOX BOUNDS ss ss ss
26.4926 73.4373
26.4926 73.4373
-0.004 19.936
ITEM: ATOMS id xs ys zs c_msd_abov[4] 
2881 0.520687 0.520687 0.994576 0.570325 
ITEM: TIMESTEP
5280
ITEM: NUMBER OF ATOMS
1
ITEM: BOX BOUNDS ss ss ss
26.4926 73.4373
26.4926 73.4373
-0.004 19.936
ITEM: ATOMS id xs ys zs c_msd_abov[4] 
2881 0.520924 0.520924 0.994093 0.578217 
ITEM: TIMESTEP
5360
ITEM: NUMBER OF ATOMS
1
ITEM: BOX BOUNDS ss ss ss
26.4926 73.4373
26.4926 73.4373
-0.004 19.936
ITEM: ATOMS id xs ys zs c_msd_abov[4] 
2881 0.521246 0.521246 0.989672 0.66467 
ITEM: TIMESTEP
5440
ITEM: NUMBER OF ATOMS
1
ITEM: BOX BOUNDS ss ss ss
26.4926 73.4373
26.4926 73.4373
-0.004 19.936
ITEM: ATOMS id xs ys zs c_msd_abov[4] 
2881 0.521812 0.521812 0.984916 0.758742 
ITEM: TIMESTEP
5520
ITEM: NUMBER OF ATOMS
1
ITEM: BOX BOUNDS ss ss ss
26.4926 73.4373
26.4926 73.4373
-0.004 19.936
ITEM: ATOMS id xs ys zs c_msd_abov[4] 
2881 0.522427 0.522427 0.982745 0.803352 
ITEM: TIMESTEP
5600
ITEM: NUMBER OF ATOMS
1
ITEM: BOX BOUNDS ss ss ss
26.4926 73.4373
26.4926 73.4373
-0.004 19.936
ITEM: ATOMS id xs ys zs c_msd_abov[4] 
2881 0.522656 0.522656 0.981279 0.833529 
ITEM: TIMESTEP
5680
ITEM: NUMBER OF ATOMS
1
ITEM: BOX BOUNDS ss ss ss
26.4926 73.4373
26.4926 73.4373
-0.004 19.936
ITEM: ATOMS id xs ys zs c_msd_abov[4] 
2881 0.522506 0.522506 0.983191 0.794795 
ITEM: TIMESTEP
5760
ITEM: NUMBER OF ATOMS
1
ITEM: BOX BOUNDS ss ss ss
26.4926 73.4373
26.4926 73.4373
-0.004 19.936
ITEM: ATOMS id xs ys zs c_msd_abov[4] 
2881 0.522503 0.522503 0.981997 0.818551 
ITEM: TIMESTEP
5840
ITEM: NUMBER OF ATOMS
1
ITEM: BOX BOUNDS ss ss ss
26.4926 73.4373
26.4926 73.4373
-0.004 19.936
ITEM: ATOMS id xs ys zs c_msd_abov[4] 
2881 0.522475 0.522475 0.973612 0.985369 
ITEM: TIMESTEP
5920
ITEM: NUMBER OF ATOMS
1
ITEM: BOX BOUNDS ss ss ss
26.4926 73.4373
26.4926 73.4373
-0.004 19.936
ITEM: ATOMS id xs ys zs c_msd_abov[4] 
2881 0.521972 0.521972 0.969276 1.07072 
ITEM: TIMESTEP
6000
ITEM: NUMBER OF ATOMS
1
ITEM: BOX BOUNDS ss ss ss
26.4926 73.4373
26.4926 73.4373
-0.004 19.936
ITEM: ATOMS id xs ys zs c_msd_abov[4] 
2881 0.521461 0.521461 0.972261 1.01122 
ITEM: TIMESTEP
6080
ITEM: NUMBER OF ATOMS
1
ITEM: BOX BOUNDS ss ss ss
26.4926 73.4373
26.4926 73.4373
-0.004 19.936
ITEM: ATOMS id xs ys zs c_msd_abov[4] 
2881 0.521345 0.521345 0.975984 0.93718 
ITEM: TIMESTEP
6160
ITEM: NUMBER OF ATOMS
1
ITEM: BOX BOUNDS ss ss ss
26.4926 73.4373
26.4926 73.4373
-0.004 19.936
ITEM: ATOMS id xs ys zs c_msd_abov[4] 
2881 0.521225 0.521225 0.979514 0.867098 
ITEM: TIMESTEP
6240
ITEM: NUMBER OF ATOMS
1
ITEM: BOX BOUNDS ss ss ss
26.4926 73.4373
26.4926 73.4373
-0.004 19.936
ITEM: ATOMS id xs ys zs c_msd_abov[4] 
2881 0.52102 0.52102 0.986223 0.73418 
ITEM: TIMESTEP
6320
ITEM: NUMBER OF ATOMS
1
ITEM: BOX BOUNDS ss ss ss
26.4926 73.4373
26.4926 73.4373
-0.004 19.936
ITEM: ATOMS id xs ys zs c_msd_abov[4] 
2881 0.521403 0.521403 0.993272 0.592503 
ITEM: TIMESTEP
6400
ITEM: NUMBER OF ATOMS
1
ITEM: BOX BOUNDS ss ss ss
26.4926 73.4373
26.4926 73.4373
-0.004 19.936
ITEM: ATOMS id xs ys zs c_msd_abov[4] 
2881 0.522277 0.522277 0.998884 0.481585 
ITEM: TIMESTEP
6480
ITEM: NUMBER OF ATOMS
1
ITEM: BOX BOUNDS ss ss ss
26.4926 73.4373
26.4926 73.4373
-0.004 19.936
ITEM: ATOMS id xs ys zs c_msd_abov[4] 
2881 0.522684 0.522684 1.00543 0.355435 
ITEM: TIMESTEP
6560
ITEM: NUMBER OF ATOMS
1
ITEM: BOX BOUNDS ss ss ss
26.4926 73.4373
26.4926 73.4373
-0.004 19.936
ITEM: ATOMS id xs ys zs c_msd_abov[4] 
2881 0.522416 0.522416 1.01248 0.213989 
ITEM: TIMESTEP
6640
ITEM: NUMBER OF ATOMS
1
ITEM: BOX BOUNDS ss ss ss
26.4926 73.4373
26.4926 73.4373
-0.004 19.936
ITEM: ATOMS id xs ys zs c_msd_abov[4] 
2881 0.521999 0.521999 1.01628 0.134481 
ITEM: TIMESTEP
6720
ITEM: NUMBER OF ATOMS
1
ITEM: BOX BOUNDS ss ss ss
26.4926 73.4373
26.4926 73.4373
-0.004 19.936
ITEM: ATOMS id xs ys zs c_msd_abov[4] 
2881 0.52199 0.52199 1.01532 0.153364 
ITEM: TIMESTEP
6800
ITEM: NUMBER OF ATOMS
1
ITEM: BOX BOUNDS ss ss ss
26.4926 73.4373
26.4926 73.4373
-0.004 19.936
ITEM: ATOMS id xs ys zs c_msd_abov[4] 
2881 0.522199 0.522199 1.01428 0.175986 
ITEM: TIMESTEP
6880
ITEM: NUMBER OF ATOMS
1
ITEM: BOX BOUNDS ss ss ss
26.4926 73.4373
26.4926 73.4373
-0.004 19.936
ITEM: ATOMS id xs ys zs c_msd_abov[4] 
2881 0.521554 0.521554 1.01568 0.145798 
ITEM: TIMESTEP
6960
ITEM: NUMBER OF ATOMS
1
ITEM: BOX BOUNDS ss ss ss
26.4926 73.4373
26.4926 73.4373
-0.004 19.936
ITEM: ATOMS id xs ys zs c_msd_abov[4] 
2881 0.520819 0.520819 1.01352 0.197833 
ITEM: TIMESTEP
7040
ITEM: NUMBER OF ATOMS
1
ITEM: BOX BOUNDS ss ss ss
26.4926 73.4373
26.4926 73.4373
-0.004 19.936
ITEM: ATOMS id xs ys zs c_msd_abov[4] 
2881 0.521379 0.521379 1.00778 0.303723 
ITEM: TIMESTEP
7120
ITEM: NUMBER OF ATOMS
1
ITEM: BOX BOUNDS ss ss ss
26.4926 73.4373
26.4926 73.4373
-0.004 19.936
ITEM: ATOMS id xs ys zs c_msd_abov[4] 
2881 0.522242 0.522242 1.0044 0.371706 
ITEM: TIMESTEP
7200
ITEM: NUMBER OF ATOMS
1
ITEM: BOX BOUNDS ss ss ss
26.4926 73.4373
26.4926 73.4373
-0.004 19.936
ITEM: ATOMS id xs ys zs c_msd_abov[4] 
2881 0.521969 0.521969 1.00193 0.419788 
ITEM: TIMESTEP
7280
ITEM: NUMBER OF ATOMS
1
ITEM: BOX BOUNDS ss ss ss
26.4926 73.4373
26.4926 73.4373
-0.004 19.936
ITEM: ATOMS id xs ys zs c_msd_abov[4] 
2881 0.521952 0.521952 0.99539 0.550086 
ITEM: TIMESTEP
7360
ITEM: NUMBER OF ATOMS
1
ITEM: BOX BOUNDS ss ss ss
26.4926 73.4373
26.4926 73.4373
-0.004 19.936
ITEM: ATOMS id xs ys zs c_msd_abov[4] 
2881 0.522595 0.522595 0.988515 0.689361 
ITEM: TIMESTEP
7440
ITEM: NUMBER OF ATOMS
1
ITEM: BOX BOUNDS ss ss ss
26.4926 73.4373
26.4926 73.4373
-0.004 19.936
ITEM: ATOMS id xs ys zs c_msd_abov[4] 
2881 0.522555 0.522555 0.988285 0.693729 
ITEM: TIMESTEP
7520
ITEM: NUMBER OF ATOMS
1
ITEM: BOX BOUNDS ss ss ss
26.4926 73.4373
26.4926 73.4373
-0.004 19.936
ITEM: ATOMS id xs ys zs c_msd_abov[4] 
2881 0.522164 0.522164 0.99199 0.618345 
ITEM: TIMESTEP
7600
ITEM: NUMBER OF ATOMS
1
ITEM: BOX BOUNDS ss ss ss
26.4926 73.4373
26.4926 73.4373
-0.004 19.936
ITEM: ATOMS id xs ys zs c_msd_abov[4] 
2881 0.521868 0.521868 0.995049 0.556745 
ITEM: TIMESTEP
7680
ITEM: NUMBER OF ATOMS
1
ITEM: BOX BOUNDS ss ss ss
26.4926 73.4373
26.4926 73.4373
-0.004 19.936
ITEM: ATOMS id xs ys zs c_msd_abov[4] 
2881 0.521416 0.521416 0.996955 0.519083 
ITEM: TIMESTEP
7760
ITEM: NUMBER OF ATOMS
1
ITEM: BOX BOUNDS ss ss ss
26.4926 73.4373
26.4926 73.4373
-0.004 19.936
ITEM: ATOMS id xs ys zs c_msd_abov[4] 
2881 0.521335 0.521335 0.997699 0.50451 
ITEM: TIMESTEP
7840
ITEM: NUMBER OF ATOMS
1
ITEM: BOX BOUNDS ss ss ss
26.4926 73.4373
26.4926 73.4373
-0.004 19.936
ITEM: ATOMS id xs ys zs c_msd_abov[4] 
2881 0.521893 0.521893 0.995675 0.5443 
ITEM: TIMESTEP
7920
ITEM: NUMBER OF ATOMS
1
ITEM: BOX BOUNDS ss ss ss
26.4926 73.4373
26.4926 73.4373
-0.004 19.936
ITEM: ATOMS id xs ys zs c_msd_abov[4] 
2881 0.522237 0.522237 0.990498 0.648306 
ITEM: TIMESTEP
8000
ITEM: NUMBER OF ATOMS
1
ITEM: BOX BOUNDS ss ss ss
26.4926 73.4373
26.4926 73.4373
-0.004 19.936
ITEM: ATOMS id xs ys zs c_msd_abov[4] 
2881 0.522021 0.522021 0.985483 0.747684 
ITEM: TIMESTEP
8080
ITEM: NUMBER OF ATOMS
1
ITEM: BOX BOUNDS ss ss ss
26.4926 73.4373
26.4926 73.4373
-0.004 19.936
ITEM: ATOMS id xs ys zs c_msd_abov[4] 
2881 0.521479 0.521479 0.981511 0.826801 
ITEM: TIMESTEP
8160
ITEM: NUMBER OF ATOMS
1
ITEM: BOX BOUNDS ss ss ss
26.4158 73.5325
26.4158 73.5325
-0.004 19.5556
ITEM: ATOMS id xs ys zs c_msd_abov[4] 
2881 0.520386 0.520386 0.998113 0.878166 
ITEM: TIMESTEP
8240
ITEM: NUMBER OF ATOMS
1
ITEM: BOX BOUNDS ss ss ss
26.4158 73.5325
26.4158 73.5325
-0.004 19.5556
ITEM: ATOMS id xs ys zs c_msd_abov[4] 
2881 0.520167 0.520167 1.00052 0.832719 
ITEM: TIMESTEP
8320
ITEM: NUMBER OF ATOMS
1
ITEM: BOX BOUNDS ss ss ss
26.4158 73.5325
26.4158 73.5325
-0.004 19.5556
ITEM: ATOMS id xs ys zs c_msd_abov[4] 
2881 0.520478 0.520478 1.00609 0.722189 
ITEM: TIMESTEP
8400
ITEM: NUMBER OF ATOMS
1
ITEM: BOX BOUNDS ss ss ss
26.4158 73.5325
26.4158 73.5325
-0.004 19.5556
ITEM: ATOMS id xs ys zs c_msd_abov[4] 
2881 0.520542 0.520542 1.01175 0.611663 
ITEM: TIMESTEP
8480
ITEM: NUMBER OF ATOMS
1
ITEM: BOX BOUNDS ss ss ss
26.4158 73.5325
26.4158 73.5325
-0.004 19.5556
ITEM: ATOMS id xs ys zs c_msd_abov[4] 
2881 0.521163 0.521163 1.01962 0.455093 
ITEM: TIMESTEP
8560
ITEM: NUMBER OF ATOMS
1
ITEM: BOX BOUNDS ss ss ss
26.4158 73.5325
26.4158 73.5325
-0.004 19.5556
ITEM: ATOMS id xs ys zs c_msd_abov[4] 
2881 0.522389 0.522389 1.02685 0.319292 
ITEM: TIMESTEP
8640
ITEM: NUMBER OF ATOMS
1
ITEM: BOX BOUNDS ss ss ss
26.4158 73.5325
26.4158 73.5325
-0.004 19.5556
ITEM: ATOMS id xs ys zs c_msd_abov[4] 
2881 0.523153 0.523153 1.02788 0.314066 
ITEM: TIMESTEP
8720
ITEM: NUMBER OF ATOMS
1
ITEM: BOX BOUNDS ss ss ss
26.4158 73.5325
26.4158 73.5325
-0.004 19.5556
ITEM: ATOMS id xs ys zs c_msd_abov[4] 
2881 0.523056 0.523056 1.02599 0.346909 
ITEM: TIMESTEP
8800
ITEM: NUMBER OF ATOMS
1
ITEM: BOX BOUNDS ss ss ss
26.4158 73.5325
26.4158 73.5325
-0.004 19.5556
ITEM: ATOMS id xs ys zs c_msd_abov[4] 
2881 0.522657 0.522657 1.02327 0.391556 
ITEM: TIMESTEP
8880
ITEM: NUMBER OF ATOMS
1
ITEM: BOX BOUNDS ss ss ss
26.4158 73.5325
26.4158 73.5325
-0.004 19.5556
ITEM: ATOMS id xs ys zs c_msd_abov[4] 
2881 0.522219 0.522219 1.01655 0.517218 
ITEM: TIMESTEP
8960
ITEM: NUMBER OF ATOMS
1
ITEM: BOX BOUNDS ss ss ss
26.4158 73.5325
26.4158 73.5325
-0.004 19.5556
ITEM: ATOMS id xs ys zs c_msd_abov[4] 
2881 0.521634 0.521634 1.00984 0.646059 
ITEM: TIMESTEP
9040
ITEM: NUMBER OF ATOMS
1
ITEM: BOX BOUNDS ss ss ss
26.4158 73.5325
26.4158 73.5325
-0.004 19.5556
ITEM: ATOMS id xs ys zs c_msd_abov[4] 
2881 0.521096 0.521096 1.00458 0.749222 
ITEM: TIMESTEP
9120
ITEM: NUMBER OF ATOMS
1
ITEM: BOX BOUNDS ss ss ss
26.4158 73.5325
26.4158 73.5325
-0.004 19.5556
ITEM: ATOMS id xs ys zs c_msd_abov[4] 
2881 0.520594 0.520594 0.996421 0.910177 
ITEM: TIMESTEP
9200
ITEM: NUMBER OF ATOMS
1
ITEM: BOX BOUNDS ss ss ss
26.4158 73.5325
26.4158 73.5325
-0.004 19.5556
ITEM: ATOMS id xs ys zs c_msd_abov[4] 
2881 0.520709 0.520709 0.99168 1.00234 
ITEM: TIMESTEP
9280
ITEM: NUMBER OF ATOMS
1
ITEM: BOX BOUNDS ss ss ss
26.4158 73.5325
26.4158 73.5325
-0.004 19.5556
ITEM: ATOMS id xs ys zs c_msd_abov[4] 
2881 0.521357 0.521357 0.994286 0.950149 
ITEM: TIMESTEP
9360
ITEM: NUMBER OF ATOMS
1
ITEM: BOX BOUNDS ss ss ss
26.4158 73.5325
26.4158 73.5325
-0.004 19.5556
ITEM: ATOMS id xs ys zs c_msd_abov[4] 
2881 0.521035 0.521035 0.99823 0.873425 
ITEM: TIMESTEP
9440
ITEM: NUMBER OF ATOMS
1
ITEM: BOX BOUNDS ss ss ss
26.4158 73.5325
26.4158 73.5325
-0.004 19.5556
ITEM: ATOMS id xs ys zs c_msd_abov[4] 
2881 0.520884 0.520884 1.0043 0.755244 
ITEM: TIMESTEP
9520
ITEM: NUMBER OF ATOMS
1
ITEM: BOX BOUNDS ss ss ss
26.4158 73.5325
26.4158 73.5325
-0.004 19.5556
ITEM: ATOMS id xs ys zs c_msd_abov[4] 
2881 0.521703 0.521703 1.01283 0.587569 
ITEM: TIMESTEP
9600
ITEM: NUMBER OF ATOMS
1
ITEM: BOX BOUNDS ss ss ss
26.4158 73.5325
26.4158 73.5325
-0.004 19.5556
ITEM: ATOMS id xs ys zs c_msd_abov[4] 
2881 0.521814 0.521814 1.01802 0.486397 
ITEM: TIMESTEP
9680
ITEM: NUMBER OF ATOMS
1
ITEM: BOX BOUNDS ss ss ss
26.4158 73.5325
26.4158 73.5325
-0.004 19.5556
ITEM: ATOMS id xs ys zs c_msd_abov[4] 
2881 0.521862 0.521862 1.01963 0.455241 
ITEM: TIMESTEP
9760
ITEM: NUMBER OF ATOMS
1
ITEM: BOX BOUNDS ss ss ss
26.4158 73.5325
26.4158 73.5325
-0.004 19.5556
ITEM: ATOMS id xs ys zs c_msd_abov[4] 
2881 0.522795 0.522795 1.02177 0.422154 
ITEM: TIMESTEP
9840
ITEM: NUMBER OF ATOMS
1
ITEM: BOX BOUNDS ss ss ss
26.4158 73.5325
26.4158 73.5325
-0.004 19.5556
ITEM: ATOMS id xs ys zs c_msd_abov[4] 
2881 0.522517 0.522517 1.02347 0.385772 
ITEM: TIMESTEP
9920
ITEM: NUMBER OF ATOMS
1
ITEM: BOX BOUNDS ss ss ss
26.4158 73.5325
26.4158 73.5325
-0.004 19.5556
ITEM: ATOMS id xs ys zs c_msd_abov[4] 
2881 0.521174 0.521174 1.02467 0.356362 
ITEM: TIMESTEP
10000
ITEM: NUMBER OF ATOMS
1
ITEM: BOX BOUNDS ss ss ss
26.4158 73.5325
26.4158 73.5325
-0.004 19.5556
ITEM: ATOMS id xs ys zs c_msd_abov[4] 
2881 0.52147 0.52147 1.02708 0.308632 
ITEM: TIMESTEP
10080
ITEM: NUMBER OF ATOMS
1
ITEM: BOX BOUNDS ss ss ss
26.4158 73.5325
26.4158 73.5325
-0.004 19.5556
ITEM: ATOMS id xs ys zs c_msd_abov[4] 
2881 0.522155 0.522155 1.02742 0.305665 
ITEM: TIMESTEP
10160
ITEM: NUMBER OF ATOMS
1
ITEM: BOX BOUNDS ss ss ss
26.4158 73.5325
26.4158 73.5325
-0.004 19.5556
ITEM: ATOMS id xs ys zs c_msd_abov[4] 
2881 0.521352 0.521352 1.02528 0.343885 
ITEM: TIMESTEP
10240
ITEM: NUMBER OF ATOMS
1
ITEM: BOX BOUNDS ss ss ss
26.4158 73.5325
26.4158 73.5325
-0.004 19.5556
ITEM: ATOMS id xs ys zs c_msd_abov[4] 
2881 0.520453 0.520453 1.02368 0.381074 
ITEM: TIMESTEP
10320
ITEM: NUMBER OF ATOMS
1
ITEM: BOX BOUNDS ss ss ss
26.4158 73.5325
26.4158 73.5325
-0.004 19.5556
ITEM: ATOMS id xs ys zs c_msd_abov[4] 
2881 0.520267 0.520267 1.02405 0.376386 
ITEM: TIMESTEP
10400
ITEM: NUMBER OF ATOMS
1
ITEM: BOX BOUNDS ss ss ss
26.4158 73.5325
26.4158 73.5325
-0.004 19.5556
ITEM: ATOMS id xs ys zs c_msd_abov[4] 
2881 0.520133 0.520133 1.02537 0.353203 
ITEM: TIMESTEP
10480
ITEM: NUMBER OF ATOMS
1
ITEM: BOX BOUNDS ss ss ss
26.4158 73.5325
26.4158 73.5325
-0.004 19.5556
ITEM: ATOMS id xs ys zs c_msd_abov[4] 
2881 0.520543 0.520543 1.02567 0.341677 
ITEM: TIMESTEP
10560
ITEM: NUMBER OF ATOMS
1
ITEM: BOX BOUNDS ss ss ss
26.4158 73.5325
26.4158 73.5325
-0.004 19.5556
ITEM: ATOMS id xs ys zs c_msd_abov[4] 
2881 0.521008 0.521008 1.02374 0.375254 
ITEM: TIMESTEP
10640
ITEM: NUMBER OF ATOMS
1
ITEM: BOX BOUNDS ss ss ss
26.4158 73.5325
26.4158 73.5325
-0.004 19.5556
ITEM: ATOMS id xs ys zs c_msd_abov[4] 
2881 0.520436 0.520436 1.02253 0.403474 
ITEM: TIMESTEP
10720
ITEM: NUMBER OF ATOMS
1
ITEM: BOX BOUNDS ss ss ss
26.4158 73.5325
26.4158 73.5325
-0.004 19.5556
ITEM: ATOMS id xs ys zs c_msd_abov[4] 
2881 0.520229 0.520229 1.02078 0.439521 
ITEM: TIMESTEP
10800
ITEM: NUMBER OF ATOMS
1
ITEM: BOX BOUNDS ss ss ss
26.4158 73.5325
26.4158 73.5325
-0.004 19.5556
ITEM: ATOMS id xs ys zs c_msd_abov[4] 
2881 0.521196 0.521196 1.01403 0.564296 
ITEM: TIMESTEP
10880
ITEM: NUMBER OF ATOMS
1
ITEM: BOX BOUNDS ss ss ss
26.4158 73.5325
26.4158 73.5325
-0.004 19.5556
ITEM: ATOMS id xs ys zs c_msd_abov[4] 
2881 0.522183 0.522183 1.00587 0.725171 
ITEM: TIMESTEP
10960
ITEM: NUMBER OF ATOMS
1
ITEM: BOX BOUNDS ss ss ss
26.4158 73.5325
26.4158 73.5325
-0.004 19.5556
ITEM: ATOMS id xs ys zs c_msd_abov[4] 
2881 0.523017 0.523017 1.00401 0.766986 
ITEM: TIMESTEP
11040
ITEM: NUMBER OF ATOMS
1
ITEM: BOX BOUNDS ss ss ss
26.4158 73.5325
26.4158 73.5325
-0.004 19.5556
ITEM: ATOMS id xs ys zs c_msd_abov[4] 
2881 0.523619 0.523619 1.00343 0.78472 
ITEM: TIMESTEP
11120
ITEM: NUMBER OF ATOMS
1
ITEM: BOX BOUNDS ss ss ss
26.4158 73.5325
26.4158 73.5325
-0.004 19.5556
ITEM: ATOMS id xs ys zs c_msd_abov[4] 
2881 0.522634 0.522634 0.99988 0.844367 
ITEM: TIMESTEP
11200
ITEM: NUMBER OF ATOMS
1
ITEM: BOX BOUNDS ss ss ss
26.4158 73.5325
26.4158 73.5325
-0.004 19.5556
ITEM: ATOMS id xs ys zs c_msd_abov[4] 
2881 0.521406 0.521406 0.996406 0.90866 
ITEM: TIMESTEP
11280
ITEM: NUMBER OF ATOMS
1
ITEM: BOX BOUNDS ss ss ss
26.4091 73.5506
26.4091 73.5506
-0.004 19.4758
ITEM: ATOMS id xs ys zs c_msd_abov[4] 
2881 0.520949 0.520949 0.999911 0.92025 
ITEM: TIMESTEP
11360
ITEM: NUMBER OF ATOMS
1
ITEM: BOX BOUNDS ss ss ss
26.4091 73.5506
26.4091 73.5506
-0.004 19.4758
ITEM: ATOMS id xs ys zs c_msd_abov[4] 
2881 0.520176 0.520176 1.0024 0.874787 
ITEM: TIMESTEP
11440
ITEM: NUMBER OF ATOMS
1
ITEM: BOX BOUNDS ss ss ss
26.4091 73.5506
26.4091 73.5506
-0.004 19.4758
ITEM: ATOMS id xs ys zs c_msd_abov[4] 
2881 0.520118 0.520118 1.00624 0.800678 
ITEM: TIMESTEP
11520
ITEM: NUMBER OF ATOMS
1
ITEM: BOX BOUNDS ss ss ss
26.4091 73.5506
26.4091 73.5506
-0.004 19.4758
ITEM: ATOMS id xs ys zs c_msd_abov[4] 
2881 0.521125 0.521125 1.01062 0.711484 
ITEM: TIMESTEP
11600
ITEM: NUMBER OF ATOMS
1
ITEM: BOX BOUNDS ss ss ss
26.4091 73.5506
26.4091 73.5506
-0.004 19.4758
ITEM: ATOMS id xs ys zs c_msd_abov[4] 
2881 0.521399 0.521399 1.01759 0.575473 
ITEM: TIMESTEP
11680
ITEM: NUMBER OF ATOMS
1
ITEM: BOX BOUNDS ss ss ss
26.4091 73.5506
26.4091 73.5506
-0.004 19.4758
ITEM: ATOMS id xs ys zs c_msd_abov[4] 
2881 0.521477 0.521477 1.02154 0.498682 
ITEM: TIMESTEP
11760
ITEM: NUMBER OF ATOMS
1
ITEM: BOX BOUNDS ss ss ss
26.4091 73.5506
26.4091 73.5506
-0.004 19.4758
ITEM: ATOMS id xs ys zs c_msd_abov[4] 
2881 0.521988 0.521988 1.02058 0.519139 
ITEM: TIMESTEP
11840
ITEM: NUMBER OF ATOMS
1
ITEM: BOX BOUNDS ss ss ss
26.4091 73.5506
26.4091 73.5506
-0.004 19.4758
ITEM: ATOMS id xs ys zs c_msd_abov[4] 
2881 0.522018 0.522018 1.02155 0.500563 
ITEM: TIMESTEP
11920
ITEM: NUMBER OF ATOMS
1
ITEM: BOX BOUNDS ss ss ss
26.4091 73.5506
26.4091 73.5506
-0.004 19.4758
ITEM: ATOMS id xs ys zs c_msd_abov[4] 
2881 0.521833 0.521833 1.02152 0.500055 
ITEM: TIMESTEP
12000
ITEM: NUMBER OF ATOMS
1
ITEM: BOX BOUNDS ss ss ss
26.4091 73.5506
26.4091 73.5506
-0.004 19.4758
ITEM: ATOMS id xs ys zs c_msd_abov[4] 
2881 0.521985 0.521985 1.01671 0.594284 
ITEM: TIMESTEP
12080
ITEM: NUMBER OF ATOMS
1
ITEM: BOX BOUNDS ss ss ss
26.4091 73.5506
26.4091 73.5506
-0.004 19.4758
ITEM: ATOMS id xs ys zs c_msd_abov[4] 
2881 0.521083 0.521083 1.01403 0.64502 
ITEM: TIMESTEP
12160
ITEM: NUMBER OF ATOMS
1
ITEM: BOX BOUNDS ss ss ss
26.4091 73.5506
26.4091 73.5506
-0.004 19.4758