ITEM: TIMESTEP
0
ITEM: NUMBER OF ATOMS
1
ITEM: BOX BOUNDS ss ss ss
26.5002 73.4304
26.5002 73.4304
-0.004 20.398
ITEM: ATOMS id xs ys zs c_msd_abov[4] 
2881 0.521728 0.521728 0.999804 0 
ITEM: TIMESTEP
80
ITEM: NUMBER OF ATOMS
1
ITEM: BOX BOUNDS ss ss ss
26.5002 73.4304
26.5002 73.4304
-0.004 20.398
ITEM: ATOMS id xs ys zs c_msd_abov[4] 
2881 0.521728 0.521728 0.98685 0.264295 
ITEM: TIMESTEP
160
ITEM: NUMBER OF ATOMS
1
ITEM: BOX BOUNDS ss ss ss
26.5002 73.4304
26.5002 73.4304
-0.004 20.398
ITEM: ATOMS id xs ys zs c_msd_abov[4] 
2881 0.521728 0.521728 0.970168 0.604632 
ITEM: TIMESTEP
240
ITEM: NUMBER OF ATOMS
1
ITEM: BOX BOUNDS ss ss ss
26.5002 73.4304
26.5002 73.4304
-0.004 20.398
ITEM: ATOMS id xs ys zs c_msd_abov[4] 
2881 0.521728 0.521728 0.969443 0.619415 
ITEM: TIMESTEP
320
ITEM: NUMBER OF ATOMS
1
ITEM: BOX BOUNDS ss ss ss
26.4783 73.4523
26.4783 73.4523
-0.004 19.5863
ITEM: ATOMS id xs ys zs c_msd_abov[4] 
2881 0.521708 0.521708 0.99838 0.839408 
ITEM: TIMESTEP
400
ITEM: NUMBER OF ATOMS
1
ITEM: BOX BOUNDS ss ss ss
26.4783 73.4523
26.4783 73.4523
-0.004 19.5863
ITEM: ATOMS id xs ys zs c_msd_abov[4] 
2881 0.521709 0.521709 0.987046 1.06144 
ITEM: TIMESTEP
480
ITEM: NUMBER OF ATOMS
1
ITEM: BOX BOUNDS ss ss ss
26.4783 73.4523
26.4783 73.4523
-0.004 19.5863
ITEM: ATOMS id xs ys zs c_msd_abov[4] 
2881 0.521712 0.521712 0.992554 0.953538 
ITEM: TIMESTEP
560
ITEM: NUMBER OF ATOMS
1
ITEM: BOX BOUNDS ss ss ss
26.4783 73.4523
26.4783 73.4523
-0.004 19.5863
ITEM: ATOMS id xs ys zs c_msd_abov[4] 
2881 0.521721 0.521721 0.993143 0.941992 
ITEM: TIMESTEP
640
ITEM: NUMBER OF ATOMS
1
ITEM: BOX BOUNDS ss ss ss
26.4783 73.4523
26.4783 73.4523
-0.004 19.5863
ITEM: ATOMS id xs ys zs c_msd_abov[4] 
2881 0.521741 0.521741 0.99337 0.937546 
ITEM: TIMESTEP
720
ITEM: NUMBER OF ATOMS
1
ITEM: BOX BOUNDS ss ss ss
26.4783 73.4523
26.4783 73.4523
-0.004 19.5863
ITEM: ATOMS id xs ys zs c_msd_abov[4] 
2881 0.521746 0.521746 1.00155 0.777376 
ITEM: TIMESTEP
800
ITEM: NUMBER OF ATOMS
1
ITEM: BOX BOUNDS ss ss ss
26.4783 73.4523
26.4783 73.4523
-0.004 19.5863
ITEM: ATOMS id xs ys zs c_msd_abov[4] 
2881 0.521713 0.521713 1.00367 0.735678 
ITEM: TIMESTEP
880
ITEM: NUMBER OF ATOMS
1
ITEM: BOX BOUNDS ss ss ss
26.4783 73.4523
26.4783 73.4523
-0.004 19.5863
ITEM: ATOMS id xs ys zs c_msd_abov[4] 
2881 0.521584 0.521584 1.00684 0.673768 
ITEM: TIMESTEP
960
ITEM: NUMBER OF ATOMS
1
ITEM: BOX BOUNDS ss ss ss
26.4783 73.4523
26.4783 73.4523
-0.004 19.5863
ITEM: ATOMS id xs ys zs c_msd_abov[4] 
2881 0.52142 0.52142 1.01282 0.556789 
ITEM: TIMESTEP
1040
ITEM: NUMBER OF ATOMS
1
ITEM: BOX BOUNDS ss ss ss
26.4783 73.4523
26.4783 73.4523
-0.004 19.5863
ITEM: ATOMS id xs ys zs c_msd_abov[4] 
2881 0.521303 0.521303 1.01402 0.533689 
ITEM: TIMESTEP
1120
ITEM: NUMBER OF ATOMS
1
ITEM: BOX BOUNDS ss ss ss
26.4783 73.4523
26.4783 73.4523
-0.004 19.5863
ITEM: ATOMS id xs ys zs c_msd_abov[4] 
2881 0.521281 0.521281 1.02536 0.312181 
ITEM: TIMESTEP
1200
ITEM: NUMBER OF ATOMS
1
ITEM: BOX BOUNDS ss ss ss
26.4783 73.4523
26.4783 73.4523
-0.004 19.5863
ITEM: ATOMS id xs ys zs c_msd_abov[4] 
2881 0.521296 0.521296 1.03608 0.104429 
ITEM: TIMESTEP
1280
ITEM: NUMBER OF ATOMS
1
ITEM: BOX BOUNDS ss ss ss
26.4179 73.5143
26.4179 73.5143
-0.004 20.2739
ITEM: ATOMS id xs ys zs c_msd_abov[4] 
2881 0.521234 0.521234 0.997681 0.169262 
ITEM: TIMESTEP
1360
ITEM: NUMBER OF ATOMS
1
ITEM: BOX BOUNDS ss ss ss
26.4179 73.5143
26.4179 73.5143
-0.004 20.2739
ITEM: ATOMS id xs ys zs c_msd_abov[4] 
2881 0.52131 0.52131 1.00507 0.0276653 
ITEM: TIMESTEP
1440
ITEM: NUMBER OF ATOMS
1
ITEM: BOX BOUNDS ss ss ss
26.4179 73.5143
26.4179 73.5143
-0.004 20.2739
ITEM: ATOMS id xs ys zs c_msd_abov[4] 
2881 0.521326 0.521326 1.0174 0.233546 
ITEM: TIMESTEP
1520
ITEM: NUMBER OF ATOMS
1
ITEM: BOX BOUNDS ss ss ss
26.4179 73.5143
26.4179 73.5143
-0.004 20.2739
ITEM: ATOMS id xs ys zs c_msd_abov[4] 
2881 0.521275 0.521275 1.01497 0.184965 
ITEM: TIMESTEP
1600
ITEM: NUMBER OF ATOMS
1
ITEM: BOX BOUNDS ss ss ss
26.4179 73.5143
26.4179 73.5143
-0.004 20.2739
ITEM: ATOMS id xs ys zs c_msd_abov[4] 
2881 0.521362 0.521362 1.01608 0.206743 
ITEM: TIMESTEP
1680
ITEM: NUMBER OF ATOMS
1
ITEM: BOX BOUNDS ss ss ss
26.4179 73.5143
26.4179 73.5143
-0.004 20.2739
ITEM: ATOMS id xs ys zs c_msd_abov[4] 
2881 0.521592 0.521592 1.01925 0.270325 
ITEM: TIMESTEP
1760
ITEM: NUMBER OF ATOMS
1
ITEM: BOX BOUNDS ss ss ss
26.4179 73.5143
26.4179 73.5143
-0.004 20.2739
ITEM: ATOMS id xs ys zs c_msd_abov[4] 
2881 0.521869 0.521869 1.00713 0.0290935 
ITEM: TIMESTEP
1840
ITEM: NUMBER OF ATOMS
1
ITEM: BOX BOUNDS ss ss ss
26.4179 73.5143
26.4179 73.5143
-0.004 20.2739
ITEM: ATOMS id xs ys zs c_msd_abov[4] 
2881 0.522331 0.522331 0.9979 0.169197 
ITEM: TIMESTEP
1920
ITEM: NUMBER OF ATOMS
1
ITEM: BOX BOUNDS ss ss ss
26.4179 73.5143
26.4179 73.5143
-0.004 20.2739
ITEM: ATOMS id xs ys zs c_msd_abov[4] 
2881 0.522536 0.522536 0.998295 0.165949 
ITEM: TIMESTEP
2000
ITEM: NUMBER OF ATOMS
1
ITEM: BOX BOUNDS ss ss ss
26.4093 73.5169
26.4093 73.5169
-0.004 20.1792
ITEM: ATOMS id xs ys zs c_msd_abov[4] 
2881 0.522468 0.522468 0.992659 0.366657 
ITEM: TIMESTEP
2080
ITEM: NUMBER OF ATOMS
1
ITEM: BOX BOUNDS ss ss ss
26.4093 73.5169
26.4093 73.5169
-0.004 20.1792
ITEM: ATOMS id xs ys zs c_msd_abov[4] 
2881 0.522183 0.522183 0.981678 0.585545 
ITEM: TIMESTEP
2160
ITEM: NUMBER OF ATOMS
1
ITEM: BOX BOUNDS ss ss ss
26.4093 73.5169
26.4093 73.5169
-0.004 20.1792
ITEM: ATOMS id xs ys zs c_msd_abov[4] 
2881 0.52191 0.52191 0.977358 0.671987 
ITEM: TIMESTEP
2240
ITEM: NUMBER OF ATOMS
1
ITEM: BOX BOUNDS ss ss ss
26.4093 73.5169
26.4093 73.5169
-0.004 20.1792
ITEM: ATOMS id xs ys zs c_msd_abov[4] 
2881 0.521415 0.521415 0.967251 0.876029 
ITEM: TIMESTEP
2320
ITEM: NUMBER OF ATOMS
1
ITEM: BOX BOUNDS ss ss ss
26.4093 73.5169
26.4093 73.5169
-0.004 20.1792
ITEM: ATOMS id xs ys zs c_msd_abov[4] 
2881 0.52098 0.52098 0.965759 0.907189 
ITEM: TIMESTEP
2400
ITEM: NUMBER OF ATOMS
1
ITEM: BOX BOUNDS ss ss ss
26.4093 73.5169
26.4093 73.5169
-0.004 20.1792
ITEM: ATOMS id xs ys zs c_msd_abov[4] 
2881 0.521511 0.521511 0.971042 0.799398 
ITEM: TIMESTEP
2480
ITEM: NUMBER OF ATOMS
1
ITEM: BOX BOUNDS ss ss ss
26.4093 73.5169
26.4093 73.5169
-0.004 20.1792
ITEM: ATOMS id xs ys zs c_msd_abov[4] 
2881 0.522087 0.522087 0.962112 0.979887 
ITEM: TIMESTEP
2560
ITEM: NUMBER OF ATOMS
1
ITEM: BOX BOUNDS ss ss ss
26.4093 73.5169
26.4093 73.5169
-0.004 20.1792
ITEM: ATOMS id xs ys zs c_msd_abov[4] 
2881 0.522571 0.522571 0.953742 1.14997 
ITEM: TIMESTEP
2640
ITEM: NUMBER OF ATOMS
1
ITEM: BOX BOUNDS ss ss ss
26.4093 73.5169
26.4093 73.5169
-0.004 20.1792
ITEM: ATOMS id xs ys zs c_msd_abov[4] 
2881 0.523239 0.523239 0.959615 1.03507 
ITEM: TIMESTEP
2720
ITEM: NUMBER OF ATOMS
1
ITEM: BOX BOUNDS ss ss ss
26.4093 73.5169
26.4093 73.5169
-0.004 20.1792
ITEM: ATOMS id xs ys zs c_msd_abov[4] 
2881 0.523192 0.523192 0.961452 0.997876 
ITEM: TIMESTEP
2800
ITEM: NUMBER OF ATOMS
1
ITEM: BOX BOUNDS ss ss ss
26.4093 73.5169
26.4093 73.5169
-0.004 20.1792
ITEM: ATOMS id xs ys zs c_msd_abov[4] 
2881 0.522156 0.522156 0.963376 0.95452 
ITEM: TIMESTEP
2880
ITEM: NUMBER OF ATOMS
1
ITEM: BOX BOUNDS ss ss ss
26.4093 73.5169
26.4093 73.5169
-0.004 20.1792
ITEM: ATOMS id xs ys zs c_msd_abov[4] 
2881 0.521248 0.521248 0.967195 0.877448 
ITEM: TIMESTEP
2960
ITEM: NUMBER OF ATOMS
1
ITEM: BOX BOUNDS ss ss ss
26.4093 73.5169
26.4093 73.5169
-0.004 20.1792
ITEM: ATOMS id xs ys zs c_msd_abov[4] 
2881 0.520582 0.520582 0.965264 0.918925 
ITEM: TIMESTEP
3040
ITEM: NUMBER OF ATOMS
1
ITEM: BOX BOUNDS ss ss ss
26.4093 73.5169
26.4093 73.5169
-0.004 20.1792
ITEM: ATOMS id xs ys zs c_msd_abov[4] 
2881 0.520619 0.520619 0.971231 0.798711 
ITEM: TIMESTEP
3120
ITEM: NUMBER OF ATOMS
1
ITEM: BOX BOUNDS ss ss ss
26.4093 73.5169
26.4093 73.5169
-0.004 20.1792
ITEM: ATOMS id xs ys zs c_msd_abov[4] 
2881 0.520925 0.520925 0.981418 0.5921 
ITEM: TIMESTEP
3200
ITEM: NUMBER OF ATOMS
1
ITEM: BOX BOUNDS ss ss ss
26.4093 73.5169
26.4093 73.5169
-0.004 20.1792
ITEM: ATOMS id xs ys zs c_msd_abov[4] 
2881 0.520405 0.520405 0.980168 0.62108 
ITEM: TIMESTEP
3280
ITEM: NUMBER OF ATOMS
1
ITEM: BOX BOUNDS ss ss ss
26.3908 73.5393
26.3908 73.5393
-0.004 19.7595
ITEM: ATOMS id xs ys zs c_msd_abov[4] 
2881 0.519228 0.519228 1.00366 0.584476 
ITEM: TIMESTEP
3360
ITEM: NUMBER OF ATOMS
1
ITEM: BOX BOUNDS ss ss ss
26.3908 73.5393
26.3908 73.5393
-0.004 19.7595
ITEM: ATOMS id xs ys zs c_msd_abov[4] 
2881 0.519639 0.519639 1.01839 0.30178 
ITEM: TIMESTEP
3440
ITEM: NUMBER OF ATOMS
1
ITEM: BOX BOUNDS ss ss ss
26.3908 73.5393
26.3908 73.5393
-0.004 19.7595
ITEM: ATOMS id xs ys zs c_msd_abov[4] 
2881 0.520745 0.520745 1.0232 0.185692 
ITEM: TIMESTEP
3520
ITEM: NUMBER OF ATOMS
1
ITEM: BOX BOUNDS ss ss ss
26.3908 73.5393
26.3908 73.5393
-0.004 19.7595
ITEM: ATOMS id xs ys zs c_msd_abov[4] 
2881 0.521511 0.521511 1.02651 0.110783 
ITEM: TIMESTEP
3600
ITEM: NUMBER OF ATOMS
1
ITEM: BOX BOUNDS ss ss ss
26.3908 73.5393
26.3908 73.5393
-0.004 19.7595
ITEM: ATOMS id xs ys zs c_msd_abov[4] 
2881 0.521553 0.521553 1.02535 0.133507 
ITEM: TIMESTEP
3680
ITEM: NUMBER OF ATOMS
1
ITEM: BOX BOUNDS ss ss ss
26.3908 73.5393
26.3908 73.5393
-0.004 19.7595
ITEM: ATOMS id xs ys zs c_msd_abov[4] 
2881 0.521145 0.521145 1.01283 0.38239 
ITEM: TIMESTEP
3760
ITEM: NUMBER OF ATOMS
1
ITEM: BOX BOUNDS ss ss ss
26.3908 73.5393
26.3908 73.5393
-0.004 19.7595
ITEM: ATOMS id xs ys zs c_msd_abov[4] 
2881 0.520344 0.520344 1.01075 0.430587 
ITEM: TIMESTEP
3840
ITEM: NUMBER OF ATOMS
1
ITEM: BOX BOUNDS ss ss ss
26.2172 73.6933
26.2172 73.6933
-0.004 20.0377
ITEM: ATOMS id xs ys zs c_msd_abov[4] 
2881 0.52039 0.52039 1.00336 0.301822 
ITEM: TIMESTEP
3920
ITEM: NUMBER OF ATOMS
1
ITEM: BOX BOUNDS ss ss ss
26.2172 73.6933
26.2172 73.6933
-0.004 20.0377
ITEM: ATOMS id xs ys zs c_msd_abov[4] 
2881 0.521195 0.521195 1.00481 0.262095 
ITEM: TIMESTEP
4000
ITEM: NUMBER OF ATOMS
1
ITEM: BOX BOUNDS ss ss ss
26.2172 73.6933
26.2172 73.6933
-0.004 20.0377
ITEM: ATOMS id xs ys zs c_msd_abov[4] 
2881 0.522415 0.522415 1.00293 0.301521 
ITEM: TIMESTEP
4080
ITEM: NUMBER OF ATOMS
1
ITEM: BOX BOUNDS ss ss ss
26.2172 73.6933
26.2172 73.6933
-0.004 20.0377
ITEM: ATOMS id xs ys zs c_msd_abov[4] 
2881 0.523478 0.523478 0.996476 0.443511 
ITEM: TIMESTEP
4160
ITEM: NUMBER OF ATOMS
1
ITEM: BOX BOUNDS ss ss ss
26.2172 73.6933
26.2172 73.6933
-0.004 20.0377
ITEM: ATOMS id xs ys zs c_msd_abov[4] 
2881 0.523581 0.523581 0.993043 0.511752 
ITEM: TIMESTEP
4240
ITEM: NUMBER OF ATOMS
1
ITEM: BOX BOUNDS ss ss ss
26.2172 73.6933
26.2172 73.6933
-0.004 20.0377
ITEM: ATOMS id xs ys zs c_msd_abov[4] 
2881 0.523718 0.523718 0.9964 0.449588 
ITEM: TIMESTEP
4320
ITEM: NUMBER OF ATOMS
1
ITEM: BOX BOUNDS ss ss ss
26.2172 73.6933
26.2172 73.6933
-0.004 20.0377
ITEM: ATOMS id xs ys zs c_msd_abov[4] 
2881 0.524255 0.524255 0.99832 0.42634 
ITEM: TIMESTEP
4400
ITEM: NUMBER OF ATOMS
1
ITEM: BOX BOUNDS ss ss ss
26.2172 73.6933
26.2172 73.6933
-0.004 20.0377
ITEM: ATOMS id xs ys zs c_msd_abov[4] 
2881 0.524675 0.524675 1.00061 0.398226 
ITEM: TIMESTEP
4480
ITEM: NUMBER OF ATOMS
1
ITEM: BOX BOUNDS ss ss ss
26.2172 73.6933
26.2172 73.6933
-0.004 20.0377
ITEM: ATOMS id xs ys zs c_msd_abov[4] 
2881 0.524482 0.524482 1.00316 0.347779 
ITEM: TIMESTEP
4560
ITEM: NUMBER OF ATOMS
1
ITEM: BOX BOUNDS ss ss ss
26.2172 73.6933
26.2172 73.6933
-0.004 20.0377
ITEM: ATOMS id xs ys zs c_msd_abov[4] 
2881 0.523462 0.523462 1.00506 0.281265 
ITEM: TIMESTEP
4640
ITEM: NUMBER OF ATOMS
1
ITEM: BOX BOUNDS ss ss ss
26.4304 73.4997
26.4304 73.4997
-0.004 20.1872
ITEM: ATOMS id xs ys zs c_msd_abov[4] 
2881 0.52221 0.52221 1.00434 0.124614 
ITEM: TIMESTEP
4720
ITEM: NUMBER OF ATOMS
1
ITEM: BOX BOUNDS ss ss ss
26.4304 73.4997
26.4304 73.4997
-0.004 20.1872
ITEM: ATOMS id xs ys zs c_msd_abov[4] 
2881 0.52165 0.52165 1.00966 0.0117722 
ITEM: TIMESTEP
4800
ITEM: NUMBER OF ATOMS
1
ITEM: BOX BOUNDS ss ss ss
26.4304 73.4997
26.4304 73.4997
-0.004 20.1872
ITEM: ATOMS id xs ys zs c_msd_abov[4] 
2881 0.521829 0.521829 1.00535 0.0994215 
ITEM: TIMESTEP
4880
ITEM: NUMBER OF ATOMS
1
ITEM: BOX BOUNDS ss ss ss
26.3313 73.6291
26.3313 73.6291
-0.004 20.2974
ITEM: ATOMS id xs ys zs c_msd_abov[4] 
2881 0.521192 0.521192 0.996025 0.177362 
ITEM: TIMESTEP
4960
ITEM: NUMBER OF ATOMS
1
ITEM: BOX BOUNDS ss ss ss
26.3313 73.6291
26.3313 73.6291
-0.004 20.2974
ITEM: ATOMS id xs ys zs c_msd_abov[4] 
2881 0.519265 0.519265 0.997094 0.204345 
ITEM: TIMESTEP
5040
ITEM: NUMBER OF ATOMS
1
ITEM: BOX BOUNDS ss ss ss
26.3313 73.6291
26.3313 73.6291
-0.004 20.2974
ITEM: ATOMS id xs ys zs c_msd_abov[4] 
2881 0.517457 0.517457 0.991694 0.366818 
ITEM: TIMESTEP
5120
ITEM: NUMBER OF ATOMS
1
ITEM: BOX BOUNDS ss ss ss
26.3313 73.6291
26.3313 73.6291
-0.004 20.2974
ITEM: ATOMS id xs ys zs c_msd_abov[4] 
2881 0.51733 0.51733 0.986989 0.445786 
ITEM: TIMESTEP
5200
ITEM: NUMBER OF ATOMS
1
ITEM: BOX BOUNDS ss ss ss
26.3313 73.6291
26.3313 73.6291
-0.004 20.2974
ITEM: ATOMS id xs ys zs c_msd_abov[4] 
2881 0.518587 0.518587 0.984693 0.444482 
ITEM: TIMESTEP
5280
ITEM: NUMBER OF ATOMS
1
ITEM: BOX BOUNDS ss ss ss
26.3313 73.6291
26.3313 73.6291
-0.004 20.2974
ITEM: ATOMS id xs ys zs c_msd_abov[4] 
2881 0.520065 0.520065 0.978235 0.544243 
ITEM: TIMESTEP
5360
ITEM: NUMBER OF ATOMS
1
ITEM: BOX BOUNDS ss ss ss
26.3313 73.6291
26.3313 73.6291
-0.004 20.2974
ITEM: ATOMS id xs ys zs c_msd_abov[4] 
2881 0.521504 0.521504 0.979154 0.520121 
ITEM: TIMESTEP
5440
ITEM: NUMBER OF ATOMS
1
ITEM: BOX BOUNDS ss ss ss
26.3313 73.6291
26.3313 73.6291
-0.004 20.2974
ITEM: ATOMS id xs ys zs c_msd_abov[4] 
2881 0.52276 0.52276 0.978638 0.539897 
ITEM: TIMESTEP
5520
ITEM: NUMBER OF ATOMS
1
ITEM: BOX BOUNDS ss ss ss
26.2703 73.7579
26.2703 73.7579
-0.004 19.5959
ITEM: ATOMS id xs ys zs c_msd_abov[4] 
2881 0.523055 0.523055 0.999375 0.829092 
ITEM: TIMESTEP
5600
ITEM: NUMBER OF ATOMS
1
ITEM: BOX BOUNDS ss ss ss
26.2703 73.7579
26.2703 73.7579
-0.004 19.5959
ITEM: ATOMS id xs ys zs c_msd_abov[4] 
2881 0.522895 0.522895 0.991677 0.975208 
ITEM: TIMESTEP
5680
ITEM: NUMBER OF ATOMS
1
ITEM: BOX BOUNDS ss ss ss
26.2703 73.7579
26.2703 73.7579
-0.004 19.5959
ITEM: ATOMS id xs ys zs c_msd_abov[4] 
2881 0.520256 0.520256 0.999046 0.816903 
ITEM: TIMESTEP
5760
ITEM: NUMBER OF ATOMS
1
ITEM: BOX BOUNDS ss ss ss
26.2703 73.7579
26.2703 73.7579
-0.004 19.5959
ITEM: ATOMS id xs ys zs c_msd_abov[4] 
2881 0.518859 0.518859 0.99831 0.838009 
ITEM: TIMESTEP
5840
ITEM: NUMBER OF ATOMS
1
ITEM: BOX BOUNDS ss ss ss
26.2362 73.6188
26.2362 73.6188
-0.004 19.3556
ITEM: ATOMS id xs ys zs c_msd_abov[4] 
2881 0.521646 0.521646 0.998581 1.06685 
ITEM: TIMESTEP
5920
ITEM: NUMBER OF ATOMS
1
ITEM: BOX BOUNDS ss ss ss
26.2362 73.6188
26.2362 73.6188
-0.004 19.3556
ITEM: ATOMS id xs ys zs c_msd_abov[4] 
2881 0.521726 0.521726 0.990002 1.23261 
ITEM: TIMESTEP
6000
ITEM: NUMBER OF ATOMS
1
ITEM: BOX BOUNDS ss ss ss
26.2362 73.6188
26.2362 73.6188
-0.004 19.3556
ITEM: ATOMS id xs ys zs c_msd_abov[4] 
2881 0.521415 0.521415 0.983548 1.35827 
ITEM: TIMESTEP
6080
ITEM: NUMBER OF ATOMS
1
ITEM: BOX BOUNDS ss ss ss
26.2362 73.6188
26.2362 73.6188
-0.004 19.3556
ITEM: ATOMS id xs ys zs c_msd_abov[4] 
2881 0.523065 0.523065 0.984208 1.34508 
ITEM: TIMESTEP
6160
ITEM: NUMBER OF ATOMS
1
ITEM: BOX BOUNDS ss ss ss
26.2362 73.6188
26.2362 73.6188
-0.004 19.3556
ITEM: ATOMS id xs ys zs c_msd_abov[4] 
2881 0.522926 0.522926 0.991375 1.20608 
ITEM: TIMESTEP
6240
ITEM: NUMBER OF ATOMS
1
ITEM: BOX BOUNDS ss ss ss
26.2362 73.6188
26.2362 73.6188
-0.004 19.3556
ITEM: ATOMS id xs ys zs c_msd_abov[4] 
2881 0.522595 0.522595 1.00165 1.0066 
ITEM: TIMESTEP
6320
ITEM: NUMBER OF ATOMS
1
ITEM: BOX BOUNDS ss ss ss
26.2362 73.6188
26.2362 73.6188
-0.004 19.3556
ITEM: ATOMS id xs ys zs c_msd_abov[4] 
2881 0.523626 0.523626 1.02069 0.643946 
ITEM: TIMESTEP
6400
ITEM: NUMBER OF ATOMS
1
ITEM: BOX BOUNDS ss ss ss
26.2362 73.6188
26.2362 73.6188
-0.004 19.3556
ITEM: ATOMS id xs ys zs c_msd_abov[4] 
2881 0.524849 0.524849 1.03512 0.396547 
ITEM: TIMESTEP
6480
ITEM: NUMBER OF ATOMS
1
ITEM: BOX BOUNDS ss ss ss
26.2362 73.6188
26.2362 73.6188
-0.004 19.3556
ITEM: ATOMS id xs ys zs c_msd_abov[4] 
2881 0.525843 0.525843 1.0405 0.347079 
ITEM: TIMESTEP
6560
ITEM: NUMBER OF ATOMS
1
ITEM: BOX BOUNDS ss ss ss
26.2311 73.7033
26.2311 73.7033
-0.004 20.2295
ITEM: ATOMS id xs ys zs c_msd_abov[4] 
2881 0.524615 0.524615 1.00571 0.218717 
ITEM: TIMESTEP
6640
ITEM: NUMBER OF ATOMS
1
ITEM: BOX BOUNDS ss ss ss
26.2311 73.7033
26.2311 73.7033
-0.004 20.2295
ITEM: ATOMS id xs ys zs c_msd_abov[4] 
2881 0.522366 0.522366 1.01557 0.162946 
ITEM: TIMESTEP
6720
ITEM: NUMBER OF ATOMS
1
ITEM: BOX BOUNDS ss ss ss
26.2311 73.7033
26.2311 73.7033
-0.004 20.2295
ITEM: ATOMS id xs ys zs c_msd_abov[4] 
2881 0.520132 0.520132 1.01158 0.11225 
ITEM: TIMESTEP
6800
ITEM: NUMBER OF ATOMS
1
ITEM: BOX BOUNDS ss ss ss
26.2311 73.7033
26.2311 73.7033
-0.004 20.2295
ITEM: ATOMS id xs ys zs c_msd_abov[4] 
2881 0.519092 0.519092 1.00918 0.159074 
ITEM: TIMESTEP
6880
ITEM: NUMBER OF ATOMS
1
ITEM: BOX BOUNDS ss ss ss
26.2311 73.7033
26.2311 73.7033
-0.004 20.2295
ITEM: ATOMS id xs ys zs c_msd_abov[4] 
2881 0.519754 0.519754 1.01915 0.250174 
ITEM: TIMESTEP
6960
ITEM: NUMBER OF ATOMS
1
ITEM: BOX BOUNDS ss ss ss
26.2763 73.7876
26.2763 73.7876
-0.004 20.6331
ITEM: ATOMS id xs ys zs c_msd_abov[4] 
2881 0.519114 0.519114 0.999268 0.232816 
ITEM: TIMESTEP
7040
ITEM: NUMBER OF ATOMS
1
ITEM: BOX BOUNDS ss ss ss
26.2763 73.7876
26.2763 73.7876
-0.004 20.6331
ITEM: ATOMS id xs ys zs c_msd_abov[4] 
2881 0.517723 0.517723 0.988936 0.157406 
ITEM: TIMESTEP
7120
ITEM: NUMBER OF ATOMS
1
ITEM: BOX BOUNDS ss ss ss
26.2763 73.7876
26.2763 73.7876
-0.004 20.6331
ITEM: ATOMS id xs ys zs c_msd_abov[4] 
2881 0.517851 0.517851 0.988757 0.148642 
ITEM: TIMESTEP
7200
ITEM: NUMBER OF ATOMS
1
ITEM: BOX BOUNDS ss ss ss
26.2763 73.7876
26.2763 73.7876
-0.004 20.6331
ITEM: ATOMS id xs ys zs c_msd_abov[4] 
2881 0.521792 0.521792 0.990157 0.121795 
ITEM: TIMESTEP
7280
ITEM: NUMBER OF ATOMS
1
ITEM: BOX BOUNDS ss ss ss
26.1511 73.6516
26.1511 73.6516
-0.004 20.3713
ITEM: ATOMS id xs ys zs c_msd_abov[4] 
2881 0.52539 0.52539 0.997438 0.18864 
ITEM: TIMESTEP
7360
ITEM: NUMBER OF ATOMS
1
ITEM: BOX BOUNDS ss ss ss
26.1511 73.6516
26.1511 73.6516
-0.004 20.3713
ITEM: ATOMS id xs ys zs c_msd_abov[4] 
2881 0.523631 0.523631 0.991269 0.208021 
ITEM: TIMESTEP
7440
ITEM: NUMBER OF ATOMS
1
ITEM: BOX BOUNDS ss ss ss
26.1511 73.6516
26.1511 73.6516
-0.004 20.3713
ITEM: ATOMS id xs ys zs c_msd_abov[4] 
2881 0.526433 0.526433 0.987899 0.362839 
ITEM: TIMESTEP
7520
ITEM: NUMBER OF ATOMS
1
ITEM: BOX BOUNDS ss ss ss
26.1511 73.6516
26.1511 73.6516
-0.004 20.3713
ITEM: ATOMS id xs ys zs c_msd_abov[4] 
2881 0.528315 0.528315 0.982015 0.536707 
ITEM: TIMESTEP
7600
ITEM: NUMBER OF ATOMS
1
ITEM: BOX BOUNDS ss ss ss
26.1511 73.6516
26.1511 73.6516
-0.004 20.3713
ITEM: ATOMS id xs ys zs c_msd_abov[4] 
2881 0.52384 0.52384 0.979979 0.436152 
ITEM: TIMESTEP
7680
ITEM: NUMBER OF ATOMS
1
ITEM: BOX BOUNDS ss ss ss
26.1511 73.6516
26.1511 73.6516
-0.004 20.3713
ITEM: ATOMS id xs ys zs c_msd_abov[4] 
2881 0.521113 0.521113 0.980752 0.430359 
ITEM: TIMESTEP
7760
ITEM: NUMBER OF ATOMS
1
ITEM: BOX BOUNDS ss ss ss
26.01 73.9759
26.01 73.9759
-0.004 20.0379
ITEM: ATOMS id xs ys zs c_msd_abov[4] 
2881 0.518846 0.518846 1.00142 0.350429 
ITEM: TIMESTEP
7840
ITEM: NUMBER OF ATOMS
1
ITEM: BOX BOUNDS ss ss ss
26.01 73.9759
26.01 73.9759
-0.004 20.0379
ITEM: ATOMS id xs ys zs c_msd_abov[4] 
2881 0.51698 0.51698 1.00436 0.367809 
ITEM: TIMESTEP
7920
ITEM: NUMBER OF ATOMS
1
ITEM: BOX BOUNDS ss ss ss
26.01 73.9759
26.01 73.9759
-0.004 20.0379
ITEM: ATOMS id xs ys zs c_msd_abov[4] 
2881 0.517068 0.517068 1.00556 0.346368 
ITEM: TIMESTEP
8000
ITEM: NUMBER OF ATOMS
1
ITEM: BOX BOUNDS ss ss ss
26.01 73.9759
26.01 73.9759
-0.004 20.0379
ITEM: ATOMS id xs ys zs c_msd_abov[4] 
2881 0.518902 0.518902 0.995978 0.453082 
ITEM: TIMESTEP
8080
ITEM: NUMBER OF ATOMS
1
ITEM: BOX BOUNDS ss ss ss
25.9063 73.8507
25.9063 73.8507
-0.004 19.7271
ITEM: ATOMS id xs ys zs c_msd_abov[4] 
2881 0.521035 0.521035 0.998926 0.701927 
ITEM: TIMESTEP
8160
ITEM: NUMBER OF ATOMS
1
ITEM: BOX BOUNDS ss ss ss
25.9063 73.8507
25.9063 73.8507
-0.004 19.7271
ITEM: ATOMS id xs ys zs c_msd_abov[4] 
2881 0.519077 0.519077 0.99329 0.844115 
ITEM: TIMESTEP
8240
ITEM: NUMBER OF ATOMS
1
ITEM: BOX BOUNDS ss ss ss
25.9063 73.8507
25.9063 73.8507
-0.004 19.7271
ITEM: ATOMS id xs ys zs c_msd_abov[4] 
2881 0.519101 0.519101 0.982499 1.04755 
ITEM: TIMESTEP
8320
ITEM: NUMBER OF ATOMS
1
ITEM: BOX BOUNDS ss ss ss
25.9063 73.8507
25.9063 73.8507
-0.004 19.7271
ITEM: ATOMS id xs ys zs c_msd_abov[4] 
2881 0.520632 0.520632 0.981316 1.04879 
ITEM: TIMESTEP
8400
ITEM: NUMBER OF ATOMS
1
ITEM: BOX BOUNDS ss ss ss
26.063 73.8415
26.063 73.8415
-0.004 19.4259
ITEM: ATOMS id xs ys zs c_msd_abov[4] 
2881 0.520086 0.520086 1.01618 0.661871 
ITEM: TIMESTEP
8480
ITEM: NUMBER OF ATOMS
1
ITEM: BOX BOUNDS ss ss ss
26.063 73.8415
26.063 73.8415
-0.004 19.4259
ITEM: ATOMS id xs ys zs c_msd_abov[4] 
2881 0.520442 0.520442 1.02374 0.513056 
ITEM: TIMESTEP
8560
ITEM: NUMBER OF ATOMS
1
ITEM: BOX BOUNDS ss ss ss
26.063 73.8415
26.063 73.8415
-0.004 19.4259
ITEM: ATOMS id xs ys zs c_msd_abov[4] 
2881 0.520467 0.520467 1.03043 0.384855 
ITEM: TIMESTEP
8640
ITEM: NUMBER OF ATOMS
1
ITEM: BOX BOUNDS ss ss ss
26.0849 74.0167
26.0849 74.0167
-0.004 20.22
ITEM: ATOMS id xs ys zs c_msd_abov[4] 
2881 0.518829 0.518829 1.0029 0.123695 
ITEM: TIMESTEP
8720
ITEM: NUMBER OF ATOMS
1
ITEM: BOX BOUNDS ss ss ss
26.0849 74.0167
26.0849 74.0167
-0.004 20.22
ITEM: ATOMS id xs ys zs c_msd_abov[4] 
2881 0.519194 0.519194 0.997213 0.231206 
ITEM: TIMESTEP
8800
ITEM: NUMBER OF ATOMS
1
ITEM: BOX BOUNDS ss ss ss
26.0849 74.0167
26.0849 74.0167
-0.004 20.22
ITEM: ATOMS id xs ys zs c_msd_abov[4] 
2881 0.518997 0.518997 0.984482 0.488943 
ITEM: TIMESTEP
8880
ITEM: NUMBER OF ATOMS
1
ITEM: BOX BOUNDS ss ss ss
26.0849 74.0167
26.0849 74.0167
-0.004 20.22
ITEM: ATOMS id xs ys zs c_msd_abov[4] 
2881 0.518397 0.518397 0.986325 0.456585 
ITEM: TIMESTEP
8960
ITEM: NUMBER OF ATOMS
1
ITEM: BOX BOUNDS ss ss ss
26.006 73.9021
26.006 73.9021
-0.004 19.9586
ITEM: ATOMS id xs ys zs c_msd_abov[4] 
2881 0.520595 0.520595 0.999207 0.455634 
ITEM: TIMESTEP
9040
ITEM: NUMBER OF ATOMS
1
ITEM: BOX BOUNDS ss ss ss
26.006 73.9021
26.006 73.9021
-0.004 19.9586
ITEM: ATOMS id xs ys zs c_msd_abov[4] 
2881 0.520633 0.520633 0.9959 0.52079 
ITEM: TIMESTEP
9120
ITEM: NUMBER OF ATOMS
1
ITEM: BOX BOUNDS ss ss ss
26.006 73.9021
26.006 73.9021
-0.004 19.9586
ITEM: ATOMS id xs ys zs c_msd_abov[4] 
2881 0.521956 0.521956 0.989674 0.642222 
ITEM: TIMESTEP
9200
ITEM: NUMBER OF ATOMS
1
ITEM: BOX BOUNDS ss ss ss
26.006 73.9021
26.006 73.9021
-0.004 19.9586
ITEM: ATOMS id xs ys zs c_msd_abov[4] 
2881 0.525556 0.525556 0.97955 0.886757 
ITEM: TIMESTEP
9280
ITEM: NUMBER OF ATOMS
1
ITEM: BOX BOUNDS ss ss ss
26.006 73.9021
26.006 73.9021
-0.004 19.9586
ITEM: ATOMS id xs ys zs c_msd_abov[4] 
2881 0.526711 0.526711 0.973366 1.02893 
ITEM: TIMESTEP
9360
ITEM: NUMBER OF ATOMS
1
ITEM: BOX BOUNDS ss ss ss
26.006 73.9021
26.006 73.9021
-0.004 19.9586
ITEM: ATOMS id xs ys zs c_msd_abov[4] 
2881 0.526577 0.526577 0.987871 0.759074 
ITEM: TIMESTEP
9440
ITEM: NUMBER OF ATOMS
1
ITEM: BOX BOUNDS ss ss ss
25.9623 74.002
25.9623 74.002
-0.004 19.8525
ITEM: ATOMS id xs ys zs c_msd_abov[4] 
2881 0.526301 0.526301 1.00377 0.594708 
ITEM: TIMESTEP
9520
ITEM: NUMBER OF ATOMS
1
ITEM: BOX BOUNDS ss ss ss
25.9623 74.002
25.9623 74.002
-0.004 19.8525
ITEM: ATOMS id xs ys zs c_msd_abov[4] 
2881 0.525771 0.525771 0.999614 0.642021 
ITEM: TIMESTEP
9600
ITEM: NUMBER OF ATOMS
1
ITEM: BOX BOUNDS ss ss ss
25.9623 74.002
25.9623 74.002
-0.004 19.8525
ITEM: ATOMS id xs ys zs c_msd_abov[4] 
2881 0.524154 0.524154 1.00568 0.483081 
ITEM: TIMESTEP
9680
ITEM: NUMBER OF ATOMS
1
ITEM: BOX BOUNDS ss ss ss
25.9402 73.9964
25.9402 73.9964
-0.004 20.0143
ITEM: ATOMS id xs ys zs c_msd_abov[4] 
2881 0.524326 0.524326 1.00613 0.33527 
ITEM: TIMESTEP
9760
ITEM: NUMBER OF ATOMS
1
ITEM: BOX BOUNDS ss ss ss
25.9402 73.9964
25.9402 73.9964
-0.004 20.0143
ITEM: ATOMS id xs ys zs c_msd_abov[4] 
2881 0.52452 0.52452 0.99711 0.493643 
ITEM: TIMESTEP
9840
ITEM: NUMBER OF ATOMS
1
ITEM: BOX BOUNDS ss ss ss
25.9708 73.9995
25.9708 73.9995
-0.004 19.7671
ITEM: ATOMS id xs ys zs c_msd_abov[4] 
2881 0.525254 0.525254 0.99982 0.698752 
ITEM: TIMESTEP
9920
ITEM: NUMBER OF ATOMS
1
ITEM: BOX BOUNDS ss ss ss
25.9708 73.9995
25.9708 73.9995
-0.004 19.7671
ITEM: ATOMS id xs ys zs c_msd_abov[4] 
2881 0.525813 0.525813 1.00814 0.57636 
ITEM: TIMESTEP
10000
ITEM: NUMBER OF ATOMS
1
ITEM: BOX BOUNDS ss ss ss
25.9708 73.9995
25.9708 73.9995
-0.004 19.7671
ITEM: ATOMS id xs ys zs c_msd_abov[4] 
2881 0.524464 0.524464 1.00941 0.505663 
ITEM: TIMESTEP
10080
ITEM: NUMBER OF ATOMS
1
ITEM: BOX BOUNDS ss ss ss
25.9708 73.9995
25.9708 73.9995
-0.004 19.7671
ITEM: ATOMS id xs ys zs c_msd_abov[4] 
2881 0.524048 0.524048 1.00271 0.613781 
ITEM: TIMESTEP
10160
ITEM: NUMBER OF ATOMS
1
ITEM: BOX BOUNDS ss ss ss
25.8645 74.1117
25.8645 74.1117
-0.004 19.8233
ITEM: ATOMS id xs ys zs c_msd_abov[4] 
2881 0.52444 0.52444 0.998767 0.648572 
ITEM: TIMESTEP
10240
ITEM: NUMBER OF ATOMS
1
ITEM: BOX BOUNDS ss ss ss
25.8645 74.1117
25.8645 74.1117
-0.004 19.8233
ITEM: ATOMS id xs ys zs c_msd_abov[4] 
2881 0.522923 0.522923 1.01054 0.393168 
ITEM: TIMESTEP
10320
ITEM: NUMBER OF ATOMS
1
ITEM: BOX BOUNDS ss ss ss
25.8645 74.1117
25.8645 74.1117
-0.004 19.8233
ITEM: ATOMS id xs ys zs c_msd_abov[4] 
2881 0.52253 0.52253 1.02142 0.193732 
ITEM: TIMESTEP
10400
ITEM: NUMBER OF ATOMS
1
ITEM: BOX BOUNDS ss ss ss
25.6097 74.0378
25.6097 74.0378
-0.004 20.2527
ITEM: ATOMS id xs ys zs c_msd_abov[4] 
2881 0.527583 0.527583 0.999706 0.287487 
ITEM: TIMESTEP
10480
ITEM: NUMBER OF ATOMS
1
ITEM: BOX BOUNDS ss ss ss
25.6097 74.0378
25.6097 74.0378
-0.004 20.2527
ITEM: ATOMS id xs ys zs c_msd_abov[4] 
2881 0.527471 0.527471 1.00345 0.249723 
ITEM: TIMESTEP
10560
ITEM: NUMBER OF ATOMS
1
ITEM: BOX BOUNDS ss ss ss
25.6097 74.0378
25.6097 74.0378
-0.004 20.2527
ITEM: ATOMS id xs ys zs c_msd_abov[4] 
2881 0.52436 0.52436 1.01986 0.262245 
ITEM: TIMESTEP
10640
ITEM: NUMBER OF ATOMS
1
ITEM: BOX BOUNDS ss ss ss
25.5563 74.1295
25.5563 74.1295
-0.004 20.7665
ITEM: ATOMS id xs ys zs c_msd_abov[4] 
2881 0.523143 0.523143 1.00322 0.440004 
ITEM: TIMESTEP
10720
ITEM: NUMBER OF ATOMS
1
ITEM: BOX BOUNDS ss ss ss
25.5563 74.1295
25.5563 74.1295
-0.004 20.7665
ITEM: ATOMS id xs ys zs c_msd_abov[4] 
2881 0.524158 0.524158 1.00138 0.403614 
ITEM: TIMESTEP
10800
ITEM: NUMBER OF ATOMS
1
ITEM: BOX BOUNDS ss ss ss
25.5563 74.1295
25.5563 74.1295
-0.004 20.7665
ITEM: ATOMS id xs ys zs c_msd_abov[4] 
2881 0.523561 0.523561 0.998898 0.349605 
ITEM: TIMESTEP
10880
ITEM: NUMBER OF ATOMS
1
ITEM: BOX BOUNDS ss ss ss
25.5563 74.1295
25.5563 74.1295
-0.004 20.7665
ITEM: ATOMS id xs ys zs c_msd_abov[4] 
2881 0.521783 0.521783 0.988214 0.174399 
ITEM: TIMESTEP
10960
ITEM: NUMBER OF ATOMS
1
ITEM: BOX BOUNDS ss ss ss
25.5563 74.1295
25.5563 74.1295
-0.004 20.7665
ITEM: ATOMS id xs ys zs c_msd_abov[4] 
2881 0.52169 0.52169 0.966 0.356436 
ITEM: TIMESTEP
11040
ITEM: NUMBER OF ATOMS
1
ITEM: BOX BOUNDS ss ss ss
25.7251 74.0556
25.7251 74.0556
-0.004 20.0469
ITEM: ATOMS id xs ys zs c_msd_abov[4] 
2881 0.523831 0.523831 0.983179 0.689132 
ITEM: TIMESTEP
11120
ITEM: NUMBER OF ATOMS
1
ITEM: BOX BOUNDS ss ss ss
25.7251 74.0556
25.7251 74.0556
-0.004 20.0469
ITEM: ATOMS id xs ys zs c_msd_abov[4] 
2881 0.52512 0.52512 0.974374 0.877344 
ITEM: TIMESTEP
11200
ITEM: NUMBER OF ATOMS
1
ITEM: BOX BOUNDS ss ss ss
25.3881 74.1377
25.3881 74.1377
-0.004 19.3498
ITEM: ATOMS id xs ys zs c_msd_abov[4] 
2881 0.526211 0.526211 0.998474 1.07665 
ITEM: TIMESTEP
11280
ITEM: NUMBER OF ATOMS
1
ITEM: BOX BOUNDS ss ss ss
25.3881 74.1377
25.3881 74.1377
-0.004 19.3498
ITEM: ATOMS id xs ys zs c_msd_abov[4] 
2881 0.527137 0.527137 0.993471 1.17924 
ITEM: TIMESTEP
11360
ITEM: NUMBER OF ATOMS
1
ITEM: BOX BOUNDS ss ss ss
25.3881 74.1377
25.3881 74.1377
-0.004 19.3498
ITEM: ATOMS id xs ys zs c_msd_abov[4] 
2881 0.530782 0.530782 1.00052 1.10669 
ITEM: TIMESTEP
11440
ITEM: NUMBER OF ATOMS
1
ITEM: BOX BOUNDS ss ss ss
25.487 74.0166
25.487 74.0166
-0.004 19.4036
ITEM: ATOMS id xs ys zs c_msd_abov[4] 
2881 0.534102 0.534102 1.00018 1.15313 
ITEM: TIMESTEP
11520
ITEM: NUMBER OF ATOMS
1
ITEM: BOX BOUNDS ss ss ss
25.487 74.0166
25.487 74.0166
-0.004 19.4036
ITEM: ATOMS id xs ys zs c_msd_abov[4] 
2881 0.535614 0.535614 0.993962 1.31039 
ITEM: TIMESTEP
11600
ITEM: NUMBER OF ATOMS
1
ITEM: BOX BOUNDS ss ss ss
25.5152 73.8571
25.5152 73.8571
-0.004 19.1195
ITEM: ATOMS id xs ys zs c_msd_abov[4] 
2881 0.536654 0.536654 0.992652 1.56519 
ITEM: TIMESTEP
11680
ITEM: NUMBER OF ATOMS
1
ITEM: BOX BOUNDS ss ss ss
25.5152 73.8571
25.5152 73.8571
-0.004 19.1195
ITEM: ATOMS id xs ys zs c_msd_abov[4] 
2881 0.535177 0.535177 0.977189 1.80256 
ITEM: TIMESTEP
11760
ITEM: NUMBER OF ATOMS
1
ITEM: BOX BOUNDS ss ss ss
25.5152 73.8571
25.5152 73.8571
-0.004 19.1195
ITEM: ATOMS id xs ys zs c_msd_abov[4] 
2881 0.533311 0.533311 0.978443 1.74331 
ITEM: TIMESTEP
11840
ITEM: NUMBER OF ATOMS
1
ITEM: BOX BOUNDS ss ss ss
25.5152 73.8571
25.5152 73.8571
-0.004 19.1195
ITEM: ATOMS id xs ys zs c_msd_abov[4] 
2881 0.53248 0.53248 0.981904 1.66535 
ITEM: TIMESTEP
11920
ITEM: NUMBER OF ATOMS
1
ITEM: BOX BOUNDS ss ss ss
25.4861 74.2974
25.4861 74.2974
-0.004 19.102
ITEM: ATOMS id xs ys zs c_msd_abov[4] 
2881 0.529123 0.529123 0.987476 1.60016 
ITEM: TIMESTEP
12000
ITEM: NUMBER OF ATOMS
1
ITEM: BOX BOUNDS ss ss ss
25.4861 74.2974
25.4861 74.2974
-0.004 19.102
ITEM: ATOMS id xs ys zs c_msd_abov[4] 
2881 0.528778 0.528778 0.99366 1.48024 
ITEM: TIMESTEP
12080
ITEM: NUMBER OF ATOMS
1
ITEM: BOX BOUNDS ss ss ss
25.472 74.0688
25.472 74.0688
-0.004 19.0957
ITEM: ATOMS id xs ys zs c_msd_abov[4] 
2881 0.529373 0.529373 1.00793 1.1857 
ITEM: TIMESTEP
12160
ITEM: NUMBER OF ATOMS
1
ITEM: BOX BOUNDS ss ss ss
25.472 74.0688
25.472 74.0688