ITEM: TIMESTEP
0
ITEM: NUMBER OF ATOMS
1
ITEM: BOX BOUNDS ss ss ss
26.5002 73.4304
26.5002 73.4304
-0.004 20.398
ITEM: ATOMS id xs ys zs c_msd_abov[4] 
2881 0.521728 0.521728 0.999804 0 
ITEM: TIMESTEP
80
ITEM: NUMBER OF ATOMS
1
ITEM: BOX BOUNDS ss ss ss
26.5002 73.4304
26.5002 73.4304
-0.004 20.398
ITEM: ATOMS id xs ys zs c_msd_abov[4] 
2881 0.521728 0.521728 0.986849 0.264297 
ITEM: TIMESTEP
160
ITEM: NUMBER OF ATOMS
1
ITEM: BOX BOUNDS ss ss ss
26.5002 73.4304
26.5002 73.4304
-0.004 20.398
ITEM: ATOMS id xs ys zs c_msd_abov[4] 
2881 0.521728 0.521728 0.970167 0.604645 
ITEM: TIMESTEP
240
ITEM: NUMBER OF ATOMS
1
ITEM: BOX BOUNDS ss ss ss
26.5002 73.4304
26.5002 73.4304
-0.004 20.398
ITEM: ATOMS id xs ys zs c_msd_abov[4] 
2881 0.521728 0.521728 0.969443 0.619434 
ITEM: TIMESTEP
320
ITEM: NUMBER OF ATOMS
1
ITEM: BOX BOUNDS ss ss ss
26.4783 73.4523
26.4783 73.4523
-0.004 19.5863
ITEM: ATOMS id xs ys zs c_msd_abov[4] 
2881 0.521708 0.521708 0.998379 0.839446 
ITEM: TIMESTEP
400
ITEM: NUMBER OF ATOMS
1
ITEM: BOX BOUNDS ss ss ss
26.4783 73.4523
26.4783 73.4523
-0.004 19.5863
ITEM: ATOMS id xs ys zs c_msd_abov[4] 
2881 0.521709 0.521709 0.987045 1.06149 
ITEM: TIMESTEP
480
ITEM: NUMBER OF ATOMS
1
ITEM: BOX BOUNDS ss ss ss
26.4783 73.4523
26.4783 73.4523
-0.004 19.5863
ITEM: ATOMS id xs ys zs c_msd_abov[4] 
2881 0.521712 0.521712 0.992555 0.953545 
ITEM: TIMESTEP
560
ITEM: NUMBER OF ATOMS
1
ITEM: BOX BOUNDS ss ss ss
26.4783 73.4523
26.4783 73.4523
-0.004 19.5863
ITEM: ATOMS id xs ys zs c_msd_abov[4] 
2881 0.521721 0.521721 0.993144 0.942 
ITEM: TIMESTEP
640
ITEM: NUMBER OF ATOMS
1
ITEM: BOX BOUNDS ss ss ss
26.4783 73.4523
26.4783 73.4523
-0.004 19.5863
ITEM: ATOMS id xs ys zs c_msd_abov[4] 
2881 0.521741 0.521741 0.993371 0.937556 
ITEM: TIMESTEP
720
ITEM: NUMBER OF ATOMS
1
ITEM: BOX BOUNDS ss ss ss
26.4783 73.4523
26.4783 73.4523
-0.004 19.5863
ITEM: ATOMS id xs ys zs c_msd_abov[4] 
2881 0.521746 0.521746 1.00155 0.777327 
ITEM: TIMESTEP
800
ITEM: NUMBER OF ATOMS
1
ITEM: BOX BOUNDS ss ss ss
26.4783 73.4523
26.4783 73.4523
-0.004 19.5863
ITEM: ATOMS id xs ys zs c_msd_abov[4] 
2881 0.521713 0.521713 1.00368 0.735619 
ITEM: TIMESTEP
880
ITEM: NUMBER OF ATOMS
1
ITEM: BOX BOUNDS ss ss ss
26.4783 73.4523
26.4783 73.4523
-0.004 19.5863
ITEM: ATOMS id xs ys zs c_msd_abov[4] 
2881 0.521584 0.521584 1.00684 0.673718 
ITEM: TIMESTEP
960
ITEM: NUMBER OF ATOMS
1
ITEM: BOX BOUNDS ss ss ss
26.4783 73.4523
26.4783 73.4523
-0.004 19.5863
ITEM: ATOMS id xs ys zs c_msd_abov[4] 
2881 0.52142 0.52142 1.01283 0.556692 
ITEM: TIMESTEP
1040
ITEM: NUMBER OF ATOMS
1
ITEM: BOX BOUNDS ss ss ss
26.4783 73.4523
26.4783 73.4523
-0.004 19.5863
ITEM: ATOMS id xs ys zs c_msd_abov[4] 
2881 0.521303 0.521303 1.01403 0.533543 
ITEM: TIMESTEP
1120
ITEM: NUMBER OF ATOMS
1
ITEM: BOX BOUNDS ss ss ss
26.4783 73.4523
26.4783 73.4523
-0.004 19.5863
ITEM: ATOMS id xs ys zs c_msd_abov[4] 
2881 0.52128 0.52128 1.02538 0.311868 
ITEM: TIMESTEP
1200
ITEM: NUMBER OF ATOMS
1
ITEM: BOX BOUNDS ss ss ss
26.4783 73.4523
26.4783 73.4523
-0.004 19.5863
ITEM: ATOMS id xs ys zs c_msd_abov[4] 
2881 0.521295 0.521295 1.03611 0.103993 
ITEM: TIMESTEP
1280
ITEM: NUMBER OF ATOMS
1
ITEM: BOX BOUNDS ss ss ss
26.4178 73.5144
26.4178 73.5144
-0.004 20.2743
ITEM: ATOMS id xs ys zs c_msd_abov[4] 
2881 0.521233 0.521233 0.997679 0.168851 
ITEM: TIMESTEP
1360
ITEM: NUMBER OF ATOMS
1
ITEM: BOX BOUNDS ss ss ss
26.4178 73.5144
26.4178 73.5144
-0.004 20.2743
ITEM: ATOMS id xs ys zs c_msd_abov[4] 
2881 0.521309 0.521309 1.00507 0.0273625 
ITEM: TIMESTEP
1440
ITEM: NUMBER OF ATOMS
1
ITEM: BOX BOUNDS ss ss ss
26.4178 73.5144
26.4178 73.5144
-0.004 20.2743
ITEM: ATOMS id xs ys zs c_msd_abov[4] 
2881 0.521326 0.521326 1.01741 0.234237 
ITEM: TIMESTEP
1520
ITEM: NUMBER OF ATOMS
1
ITEM: BOX BOUNDS ss ss ss
26.4178 73.5144
26.4178 73.5144
-0.004 20.2743
ITEM: ATOMS id xs ys zs c_msd_abov[4] 
2881 0.521275 0.521275 1.01498 0.18564 
ITEM: TIMESTEP
1600
ITEM: NUMBER OF ATOMS
1
ITEM: BOX BOUNDS ss ss ss
26.4178 73.5144
26.4178 73.5144
-0.004 20.2743
ITEM: ATOMS id xs ys zs c_msd_abov[4] 
2881 0.521362 0.521362 1.01609 0.207431 
ITEM: TIMESTEP
1680
ITEM: NUMBER OF ATOMS
1
ITEM: BOX BOUNDS ss ss ss
26.4178 73.5144
26.4178 73.5144
-0.004 20.2743
ITEM: ATOMS id xs ys zs c_msd_abov[4] 
2881 0.521592 0.521592 1.01927 0.271139 
ITEM: TIMESTEP
1760
ITEM: NUMBER OF ATOMS
1
ITEM: BOX BOUNDS ss ss ss
26.4178 73.5144
26.4178 73.5144
-0.004 20.2743
ITEM: ATOMS id xs ys zs c_msd_abov[4] 
2881 0.52187 0.52187 1.00714 0.029691 
ITEM: TIMESTEP
1840
ITEM: NUMBER OF ATOMS
1
ITEM: BOX BOUNDS ss ss ss
26.4178 73.5144
26.4178 73.5144
-0.004 20.2743
ITEM: ATOMS id xs ys zs c_msd_abov[4] 
2881 0.522332 0.522332 0.997898 0.168835 
ITEM: TIMESTEP
1920
ITEM: NUMBER OF ATOMS
1
ITEM: BOX BOUNDS ss ss ss
26.4178 73.5144
26.4178 73.5144
-0.004 20.2743
ITEM: ATOMS id xs ys zs c_msd_abov[4] 
2881 0.522537 0.522537 0.99829 0.165656 
ITEM: TIMESTEP
2000
ITEM: NUMBER OF ATOMS
1
ITEM: BOX BOUNDS ss ss ss
26.409 73.5172
26.409 73.5172
-0.004 20.1795
ITEM: ATOMS id xs ys zs c_msd_abov[4] 
2881 0.522468 0.522468 0.992655 0.36643 
ITEM: TIMESTEP
2080
ITEM: NUMBER OF ATOMS
1
ITEM: BOX BOUNDS ss ss ss
26.409 73.5172
26.409 73.5172
-0.004 20.1795
ITEM: ATOMS id xs ys zs c_msd_abov[4] 
2881 0.522182 0.522182 0.981671 0.585383 
ITEM: TIMESTEP
2160
ITEM: NUMBER OF ATOMS
1
ITEM: BOX BOUNDS ss ss ss
26.409 73.5172
26.409 73.5172
-0.004 20.1795
ITEM: ATOMS id xs ys zs c_msd_abov[4] 
2881 0.521909 0.521909 0.977347 0.671898 
ITEM: TIMESTEP
2240
ITEM: NUMBER OF ATOMS
1
ITEM: BOX BOUNDS ss ss ss
26.409 73.5172
26.409 73.5172
-0.004 20.1795
ITEM: ATOMS id xs ys zs c_msd_abov[4] 
2881 0.521413 0.521413 0.967226 0.876229 
ITEM: TIMESTEP
2320
ITEM: NUMBER OF ATOMS
1
ITEM: BOX BOUNDS ss ss ss
26.409 73.5172
26.409 73.5172
-0.004 20.1795
ITEM: ATOMS id xs ys zs c_msd_abov[4] 
2881 0.520977 0.520977 0.965739 0.907284 
ITEM: TIMESTEP
2400
ITEM: NUMBER OF ATOMS
1
ITEM: BOX BOUNDS ss ss ss
26.409 73.5172
26.409 73.5172
-0.004 20.1795
ITEM: ATOMS id xs ys zs c_msd_abov[4] 
2881 0.52151 0.52151 0.97104 0.79914 
ITEM: TIMESTEP
2480
ITEM: NUMBER OF ATOMS
1
ITEM: BOX BOUNDS ss ss ss
26.409 73.5172
26.409 73.5172
-0.004 20.1795
ITEM: ATOMS id xs ys zs c_msd_abov[4] 
2881 0.522088 0.522088 0.962093 0.979974 
ITEM: TIMESTEP
2560
ITEM: NUMBER OF ATOMS
1
ITEM: BOX BOUNDS ss ss ss
26.409 73.5172
26.409 73.5172
-0.004 20.1795
ITEM: ATOMS id xs ys zs c_msd_abov[4] 
2881 0.522574 0.522574 0.953684 1.15084 
ITEM: TIMESTEP
2640
ITEM: NUMBER OF ATOMS
1
ITEM: BOX BOUNDS ss ss ss
26.409 73.5172
26.409 73.5172
-0.004 20.1795
ITEM: ATOMS id xs ys zs c_msd_abov[4] 
2881 0.523243 0.523243 0.959554 1.03603 
ITEM: TIMESTEP
2720
ITEM: NUMBER OF ATOMS
1
ITEM: BOX BOUNDS ss ss ss
26.409 73.5172
26.409 73.5172
-0.004 20.1795
ITEM: ATOMS id xs ys zs c_msd_abov[4] 
2881 0.523197 0.523197 0.961393 0.998798 
ITEM: TIMESTEP
2800
ITEM: NUMBER OF ATOMS
1
ITEM: BOX BOUNDS ss ss ss
26.409 73.5172
26.409 73.5172
-0.004 20.1795
ITEM: ATOMS id xs ys zs c_msd_abov[4] 
2881 0.522157 0.522157 0.963308 0.955611 
ITEM: TIMESTEP
2880
ITEM: NUMBER OF ATOMS
1
ITEM: BOX BOUNDS ss ss ss
26.409 73.5172
26.409 73.5172
-0.004 20.1795
ITEM: ATOMS id xs ys zs c_msd_abov[4] 
2881 0.521247 0.521247 0.967131 0.878437 
ITEM: TIMESTEP
2960
ITEM: NUMBER OF ATOMS
1
ITEM: BOX BOUNDS ss ss ss
26.409 73.5172
26.409 73.5172
-0.004 20.1795
ITEM: ATOMS id xs ys zs c_msd_abov[4] 
2881 0.52058 0.52058 0.965214 0.919634 
ITEM: TIMESTEP
3040
ITEM: NUMBER OF ATOMS
1
ITEM: BOX BOUNDS ss ss ss
26.409 73.5172
26.409 73.5172
-0.004 20.1795
ITEM: ATOMS id xs ys zs c_msd_abov[4] 
2881 0.520617 0.520617 0.971196 0.799105 
ITEM: TIMESTEP
3120
ITEM: NUMBER OF ATOMS
1
ITEM: BOX BOUNDS ss ss ss
26.409 73.5172
26.409 73.5172
-0.004 20.1795
ITEM: ATOMS id xs ys zs c_msd_abov[4] 
2881 0.520923 0.520923 0.981417 0.591822 
ITEM: TIMESTEP
3200
ITEM: NUMBER OF ATOMS
1
ITEM: BOX BOUNDS ss ss ss
26.409 73.5172
26.409 73.5172
-0.004 20.1795
ITEM: ATOMS id xs ys zs c_msd_abov[4] 
2881 0.520402 0.520402 0.980183 0.620496 
ITEM: TIMESTEP
3280
ITEM: NUMBER OF ATOMS
1
ITEM: BOX BOUNDS ss ss ss
26.3898 73.5403
26.3898 73.5403
-0.004 19.7599
ITEM: ATOMS id xs ys zs c_msd_abov[4] 
2881 0.519219 0.519219 1.00365 0.584431 
ITEM: TIMESTEP
3360
ITEM: NUMBER OF ATOMS
1
ITEM: BOX BOUNDS ss ss ss
26.3898 73.5403
26.3898 73.5403
-0.004 19.7599
ITEM: ATOMS id xs ys zs c_msd_abov[4] 
2881 0.519634 0.519634 1.01841 0.301353 
ITEM: TIMESTEP
3440
ITEM: NUMBER OF ATOMS
1
ITEM: BOX BOUNDS ss ss ss
26.3898 73.5403
26.3898 73.5403
-0.004 19.7599
ITEM: ATOMS id xs ys zs c_msd_abov[4] 
2881 0.520745 0.520745 1.02322 0.184872 
ITEM: TIMESTEP
3520
ITEM: NUMBER OF ATOMS
1
ITEM: BOX BOUNDS ss ss ss
26.3898 73.5403
26.3898 73.5403
-0.004 19.7599
ITEM: ATOMS id xs ys zs c_msd_abov[4] 
2881 0.521513 0.521513 1.02653 0.110066 
ITEM: TIMESTEP
3600
ITEM: NUMBER OF ATOMS
1
ITEM: BOX BOUNDS ss ss ss
26.3898 73.5403
26.3898 73.5403
-0.004 19.7599
ITEM: ATOMS id xs ys zs c_msd_abov[4] 
2881 0.521551 0.521551 1.02536 0.133067 
ITEM: TIMESTEP
3680
ITEM: NUMBER OF ATOMS
1
ITEM: BOX BOUNDS ss ss ss
26.3898 73.5403
26.3898 73.5403
-0.004 19.7599
ITEM: ATOMS id xs ys zs c_msd_abov[4] 
2881 0.521138 0.521138 1.0128 0.38246 
ITEM: TIMESTEP
3760
ITEM: NUMBER OF ATOMS
1
ITEM: BOX BOUNDS ss ss ss
26.3898 73.5403
26.3898 73.5403
-0.004 19.7599
ITEM: ATOMS id xs ys zs c_msd_abov[4] 
2881 0.520336 0.520336 1.01074 0.430663 
ITEM: TIMESTEP
3840
ITEM: NUMBER OF ATOMS
1
ITEM: BOX BOUNDS ss ss ss
26.2168 73.6936
26.2168 73.6936
-0.004 20.036
ITEM: ATOMS id xs ys zs c_msd_abov[4] 
2881 0.52038 0.52038 1.00349 0.301268 
ITEM: TIMESTEP
3920
ITEM: NUMBER OF ATOMS
1
ITEM: BOX BOUNDS ss ss ss
26.2168 73.6936
26.2168 73.6936
-0.004 20.036
ITEM: ATOMS id xs ys zs c_msd_abov[4] 
2881 0.521183 0.521183 1.00503 0.25942 
ITEM: TIMESTEP
4000
ITEM: NUMBER OF ATOMS
1
ITEM: BOX BOUNDS ss ss ss
26.2168 73.6936
26.2168 73.6936
-0.004 20.036
ITEM: ATOMS id xs ys zs c_msd_abov[4] 
2881 0.522406 0.522406 1.00318 0.298224 
ITEM: TIMESTEP
4080
ITEM: NUMBER OF ATOMS
1
ITEM: BOX BOUNDS ss ss ss
26.2168 73.6936
26.2168 73.6936
-0.004 20.036
ITEM: ATOMS id xs ys zs c_msd_abov[4] 
2881 0.52348 0.52348 0.996681 0.441152 
ITEM: TIMESTEP
4160
ITEM: NUMBER OF ATOMS
1
ITEM: BOX BOUNDS ss ss ss
26.2168 73.6936
26.2168 73.6936
-0.004 20.036
ITEM: ATOMS id xs ys zs c_msd_abov[4] 
2881 0.523581 0.523581 0.993286 0.508615 
ITEM: TIMESTEP
4240
ITEM: NUMBER OF ATOMS
1
ITEM: BOX BOUNDS ss ss ss
26.2168 73.6936
26.2168 73.6936
-0.004 20.036
ITEM: ATOMS id xs ys zs c_msd_abov[4] 
2881 0.523713 0.523713 0.996653 0.446214 
ITEM: TIMESTEP
4320
ITEM: NUMBER OF ATOMS
1
ITEM: BOX BOUNDS ss ss ss
26.2168 73.6936
26.2168 73.6936
-0.004 20.036
ITEM: ATOMS id xs ys zs c_msd_abov[4] 
2881 0.524258 0.524258 0.998547 0.423721 
ITEM: TIMESTEP
4400
ITEM: NUMBER OF ATOMS
1
ITEM: BOX BOUNDS ss ss ss
26.2168 73.6936
26.2168 73.6936
-0.004 20.036
ITEM: ATOMS id xs ys zs c_msd_abov[4] 
2881 0.524688 0.524688 1.00086 0.395661 
ITEM: TIMESTEP
4480
ITEM: NUMBER OF ATOMS
1
ITEM: BOX BOUNDS ss ss ss
26.2168 73.6936
26.2168 73.6936
-0.004 20.036
ITEM: ATOMS id xs ys zs c_msd_abov[4] 
2881 0.524505 0.524505 1.00338 0.346322 
ITEM: TIMESTEP
4560
ITEM: NUMBER OF ATOMS
1
ITEM: BOX BOUNDS ss ss ss
26.2168 73.6936
26.2168 73.6936
-0.004 20.036
ITEM: ATOMS id xs ys zs c_msd_abov[4] 
2881 0.523485 0.523485 1.00519 0.281045 
ITEM: TIMESTEP
4640
ITEM: NUMBER OF ATOMS
1
ITEM: BOX BOUNDS ss ss ss
26.4282 73.5023
26.4282 73.5023
-0.004 20.1814
ITEM: ATOMS id xs ys zs c_msd_abov[4] 
2881 0.522213 0.522213 1.00468 0.123592 
ITEM: TIMESTEP
4720
ITEM: NUMBER OF ATOMS
1
ITEM: BOX BOUNDS ss ss ss
26.4282 73.5023
26.4282 73.5023
-0.004 20.1814
ITEM: ATOMS id xs ys zs c_msd_abov[4] 
2881 0.521644 0.521644 1.01005 0.00973944 
ITEM: TIMESTEP
4800
ITEM: NUMBER OF ATOMS
1
ITEM: BOX BOUNDS ss ss ss
26.3244 73.6359
26.3244 73.6359
-0.004 20.31
ITEM: ATOMS id xs ys zs c_msd_abov[4] 
2881 0.521405 0.521405 0.999364 0.0975748 
ITEM: TIMESTEP
4880
ITEM: NUMBER OF ATOMS
1
ITEM: BOX BOUNDS ss ss ss
26.3244 73.6359
26.3244 73.6359
-0.004 20.31
ITEM: ATOMS id xs ys zs c_msd_abov[4] 
2881 0.521207 0.521207 0.99551 0.175244 
ITEM: TIMESTEP
4960
ITEM: NUMBER OF ATOMS
1
ITEM: BOX BOUNDS ss ss ss
26.3244 73.6359
26.3244 73.6359
-0.004 20.31
ITEM: ATOMS id xs ys zs c_msd_abov[4] 
2881 0.519261 0.519261 0.996594 0.202447 
ITEM: TIMESTEP
5040
ITEM: NUMBER OF ATOMS
1
ITEM: BOX BOUNDS ss ss ss
26.3244 73.6359
26.3244 73.6359
-0.004 20.31
ITEM: ATOMS id xs ys zs c_msd_abov[4] 
2881 0.517424 0.517424 0.99115 0.367053 
ITEM: TIMESTEP
5120
ITEM: NUMBER OF ATOMS
1
ITEM: BOX BOUNDS ss ss ss
26.3244 73.6359
26.3244 73.6359
-0.004 20.31
ITEM: ATOMS id xs ys zs c_msd_abov[4] 
2881 0.517289 0.517289 0.986497 0.445233 
ITEM: TIMESTEP
5200
ITEM: NUMBER OF ATOMS
1
ITEM: BOX BOUNDS ss ss ss
26.3244 73.6359
26.3244 73.6359
-0.004 20.31
ITEM: ATOMS id xs ys zs c_msd_abov[4] 
2881 0.518557 0.518557 0.984254 0.441962 
ITEM: TIMESTEP
5280
ITEM: NUMBER OF ATOMS
1
ITEM: BOX BOUNDS ss ss ss
26.3244 73.6359
26.3244 73.6359
-0.004 20.31
ITEM: ATOMS id xs ys zs c_msd_abov[4] 
2881 0.520042 0.520042 0.977693 0.543104 
ITEM: TIMESTEP
5360
ITEM: NUMBER OF ATOMS
1
ITEM: BOX BOUNDS ss ss ss
26.3244 73.6359
26.3244 73.6359
-0.004 20.31
ITEM: ATOMS id xs ys zs c_msd_abov[4] 
2881 0.521483 0.521483 0.978593 0.519154 
ITEM: TIMESTEP
5440
ITEM: NUMBER OF ATOMS
1
ITEM: BOX BOUNDS ss ss ss
26.3244 73.6359
26.3244 73.6359
-0.004 20.31
ITEM: ATOMS id xs ys zs c_msd_abov[4] 
2881 0.52275 0.52275 0.978101 0.538449 
ITEM: TIMESTEP
5520
ITEM: NUMBER OF ATOMS
1
ITEM: BOX BOUNDS ss ss ss
26.2685 73.7548
26.2685 73.7548
-0.004 19.5991
ITEM: ATOMS id xs ys zs c_msd_abov[4] 
2881 0.52312 0.52312 0.999155 0.830324 
ITEM: TIMESTEP
5600
ITEM: NUMBER OF ATOMS
1
ITEM: BOX BOUNDS ss ss ss
26.2685 73.7548
26.2685 73.7548
-0.004 19.5991
ITEM: ATOMS id xs ys zs c_msd_abov[4] 
2881 0.522973 0.522973 0.991316 0.979326 
ITEM: TIMESTEP
5680
ITEM: NUMBER OF ATOMS
1
ITEM: BOX BOUNDS ss ss ss
26.2685 73.7548
26.2685 73.7548
-0.004 19.5991
ITEM: ATOMS id xs ys zs c_msd_abov[4] 
2881 0.520313 0.520313 0.998737 0.819712 
ITEM: TIMESTEP
5760
ITEM: NUMBER OF ATOMS
1
ITEM: BOX BOUNDS ss ss ss
26.2685 73.7548
26.2685 73.7548
-0.004 19.5991
ITEM: ATOMS id xs ys zs c_msd_abov[4] 
2881 0.518894 0.518894 0.998104 0.838979 
ITEM: TIMESTEP
5840
ITEM: NUMBER OF ATOMS
1
ITEM: BOX BOUNDS ss ss ss
26.2289 73.6355
26.2289 73.6355
-0.004 19.373
ITEM: ATOMS id xs ys zs c_msd_abov[4] 
2881 0.521517 0.521517 0.997693 1.06669 
ITEM: TIMESTEP
5920
ITEM: NUMBER OF ATOMS
1
ITEM: BOX BOUNDS ss ss ss
26.2289 73.6355
26.2289 73.6355
-0.004 19.373
ITEM: ATOMS id xs ys zs c_msd_abov[4] 
2881 0.521595 0.521595 0.989072 1.23343 
ITEM: TIMESTEP
6000
ITEM: NUMBER OF ATOMS
1
ITEM: BOX BOUNDS ss ss ss
26.2289 73.6355
26.2289 73.6355
-0.004 19.373
ITEM: ATOMS id xs ys zs c_msd_abov[4] 
2881 0.52128 0.52128 0.982589 1.35978 
ITEM: TIMESTEP
6080
ITEM: NUMBER OF ATOMS
1
ITEM: BOX BOUNDS ss ss ss
26.2289 73.6355
26.2289 73.6355
-0.004 19.373
ITEM: ATOMS id xs ys zs c_msd_abov[4] 
2881 0.522961 0.522961 0.983157 1.3483 
ITEM: TIMESTEP
6160
ITEM: NUMBER OF ATOMS
1
ITEM: BOX BOUNDS ss ss ss
26.2289 73.6355
26.2289 73.6355
-0.004 19.373
ITEM: ATOMS id xs ys zs c_msd_abov[4] 
2881 0.522809 0.522809 0.990335 1.20893 
ITEM: TIMESTEP
6240
ITEM: NUMBER OF ATOMS
1
ITEM: BOX BOUNDS ss ss ss
26.2289 73.6355
26.2289 73.6355
-0.004 19.373
ITEM: ATOMS id xs ys zs c_msd_abov[4] 
2881 0.522462 0.522462 1.00058 1.00995 
ITEM: TIMESTEP
6320
ITEM: NUMBER OF ATOMS
1
ITEM: BOX BOUNDS ss ss ss
26.2289 73.6355
26.2289 73.6355
-0.004 19.373
ITEM: ATOMS id xs ys zs c_msd_abov[4] 
2881 0.523516 0.523516 1.01964 0.646332 
ITEM: TIMESTEP
6400
ITEM: NUMBER OF ATOMS
1
ITEM: BOX BOUNDS ss ss ss
26.2289 73.6355
26.2289 73.6355
-0.004 19.373
ITEM: ATOMS id xs ys zs c_msd_abov[4] 
2881 0.52476 0.52476 1.03424 0.396344 
ITEM: TIMESTEP
6480
ITEM: NUMBER OF ATOMS
1
ITEM: BOX BOUNDS ss ss ss
26.2289 73.6355
26.2289 73.6355
-0.004 19.373
ITEM: ATOMS id xs ys zs c_msd_abov[4] 
2881 0.525766 0.525766 1.03966 0.347377 
ITEM: TIMESTEP
6560
ITEM: NUMBER OF ATOMS
1
ITEM: BOX BOUNDS ss ss ss
26.2226 73.7141
26.2226 73.7141
-0.004 20.2855
ITEM: ATOMS id xs ys zs c_msd_abov[4] 
2881 0.524614 0.524614 1.00292 0.220987 
ITEM: TIMESTEP
6640
ITEM: NUMBER OF ATOMS
1
ITEM: BOX BOUNDS ss ss ss
26.2226 73.7141
26.2226 73.7141
-0.004 20.2855
ITEM: ATOMS id xs ys zs c_msd_abov[4] 
2881 0.52234 0.52234 1.01284 0.164396 
ITEM: TIMESTEP
6720
ITEM: NUMBER OF ATOMS
1
ITEM: BOX BOUNDS ss ss ss
26.2226 73.7141
26.2226 73.7141
-0.004 20.2855
ITEM: ATOMS id xs ys zs c_msd_abov[4] 
2881 0.520094 0.520094 1.00888 0.113565 
ITEM: TIMESTEP
6800
ITEM: NUMBER OF ATOMS
1
ITEM: BOX BOUNDS ss ss ss
26.2226 73.7141
26.2226 73.7141
-0.004 20.2855
ITEM: ATOMS id xs ys zs c_msd_abov[4] 
2881 0.519054 0.519054 1.00626 0.159113 
ITEM: TIMESTEP
6880
ITEM: NUMBER OF ATOMS
1
ITEM: BOX BOUNDS ss ss ss
26.2226 73.7141
26.2226 73.7141
-0.004 20.2855
ITEM: ATOMS id xs ys zs c_msd_abov[4] 
2881 0.519721 0.519721 1.01631 0.249561 
ITEM: TIMESTEP
6960
ITEM: NUMBER OF ATOMS
1
ITEM: BOX BOUNDS ss ss ss
26.2738 73.6733
26.2738 73.6733
-0.004 20.6342
ITEM: ATOMS id xs ys zs c_msd_abov[4] 
2881 0.520407 0.520407 0.99945 0.237268 
ITEM: TIMESTEP
7040
ITEM: NUMBER OF ATOMS
1
ITEM: BOX BOUNDS ss ss ss
26.2738 73.6733
26.2738 73.6733
-0.004 20.6342
ITEM: ATOMS id xs ys zs c_msd_abov[4] 
2881 0.518985 0.518985 0.989257 0.1589 
ITEM: TIMESTEP
7120
ITEM: NUMBER OF ATOMS
1
ITEM: BOX BOUNDS ss ss ss
26.2738 73.6733
26.2738 73.6733
-0.004 20.6342
ITEM: ATOMS id xs ys zs c_msd_abov[4] 
2881 0.518991 0.518991 0.989183 0.158283 
ITEM: TIMESTEP
7200
ITEM: NUMBER OF ATOMS
1
ITEM: BOX BOUNDS ss ss ss
26.2738 73.6733
26.2738 73.6733
-0.004 20.6342
ITEM: ATOMS id xs ys zs c_msd_abov[4] 
2881 0.522963 0.522963 0.990838 0.120287 
ITEM: TIMESTEP
7280
ITEM: NUMBER OF ATOMS
1
ITEM: BOX BOUNDS ss ss ss
26.0636 73.7032
26.0636 73.7032
-0.004 20.3895
ITEM: ATOMS id xs ys zs c_msd_abov[4] 
2881 0.525675 0.525675 0.997322 0.181736 
ITEM: TIMESTEP
7360
ITEM: NUMBER OF ATOMS
1
ITEM: BOX BOUNDS ss ss ss
26.0636 73.7032
26.0636 73.7032
-0.004 20.3895
ITEM: ATOMS id xs ys zs c_msd_abov[4] 
2881 0.523834 0.523834 0.991336 0.187384 
ITEM: TIMESTEP
7440
ITEM: NUMBER OF ATOMS
1
ITEM: BOX BOUNDS ss ss ss
26.0636 73.7032
26.0636 73.7032
-0.004 20.3895
ITEM: ATOMS id xs ys zs c_msd_abov[4] 
2881 0.526617 0.526617 0.988213 0.339612 
ITEM: TIMESTEP
7520
ITEM: NUMBER OF ATOMS
1
ITEM: BOX BOUNDS ss ss ss
26.0636 73.7032
26.0636 73.7032
-0.004 20.3895
ITEM: ATOMS id xs ys zs c_msd_abov[4] 
2881 0.528765 0.528765 0.981769 0.534777 
ITEM: TIMESTEP
7600
ITEM: NUMBER OF ATOMS
1
ITEM: BOX BOUNDS ss ss ss
26.0636 73.7032
26.0636 73.7032
-0.004 20.3895
ITEM: ATOMS id xs ys zs c_msd_abov[4] 
2881 0.524437 0.524437 0.978832 0.445052 
ITEM: TIMESTEP
7680
ITEM: NUMBER OF ATOMS
1
ITEM: BOX BOUNDS ss ss ss
26.0636 73.7032
26.0636 73.7032
-0.004 20.3895
ITEM: ATOMS id xs ys zs c_msd_abov[4] 
2881 0.521277 0.521277 0.97852 0.459691 
ITEM: TIMESTEP
7760
ITEM: NUMBER OF ATOMS
1
ITEM: BOX BOUNDS ss ss ss
25.6643 74.0259
25.6643 74.0259
-0.004 20.0132
ITEM: ATOMS id xs ys zs c_msd_abov[4] 
2881 0.521614 0.521614 1.00162 0.373128 
ITEM: TIMESTEP
7840
ITEM: NUMBER OF ATOMS
1
ITEM: BOX BOUNDS ss ss ss
25.6643 74.0259
25.6643 74.0259
-0.004 20.0132
ITEM: ATOMS id xs ys zs c_msd_abov[4] 
2881 0.519961 0.519961 1.00453 0.380864 
ITEM: TIMESTEP
7920
ITEM: NUMBER OF ATOMS
1
ITEM: BOX BOUNDS ss ss ss
25.6643 74.0259
25.6643 74.0259
-0.004 20.0132
ITEM: ATOMS id xs ys zs c_msd_abov[4] 
2881 0.520024 0.520024 1.00552 0.363145 
ITEM: TIMESTEP
8000
ITEM: NUMBER OF ATOMS
1
ITEM: BOX BOUNDS ss ss ss
25.6643 74.0259
25.6643 74.0259
-0.004 20.0132
ITEM: ATOMS id xs ys zs c_msd_abov[4] 
2881 0.521813 0.521813 0.996441 0.467757 
ITEM: TIMESTEP
8080
ITEM: NUMBER OF ATOMS
1
ITEM: BOX BOUNDS ss ss ss
25.9407 73.8945
25.9407 73.8945
-0.004 19.7199
ITEM: ATOMS id xs ys zs c_msd_abov[4] 
2881 0.52015 0.52015 0.998689 0.714455 
ITEM: TIMESTEP
8160
ITEM: NUMBER OF ATOMS
1
ITEM: BOX BOUNDS ss ss ss
25.9407 73.8945
25.9407 73.8945
-0.004 19.7199
ITEM: ATOMS id xs ys zs c_msd_abov[4] 
2881 0.517889 0.517889 0.993081 0.863078 
ITEM: TIMESTEP
8240
ITEM: NUMBER OF ATOMS
1
ITEM: BOX BOUNDS ss ss ss
25.9407 73.8945
25.9407 73.8945
-0.004 19.7199
ITEM: ATOMS id xs ys zs c_msd_abov[4] 
2881 0.517606 0.517606 0.982515 1.06675 
ITEM: TIMESTEP
8320
ITEM: NUMBER OF ATOMS
1
ITEM: BOX BOUNDS ss ss ss
25.8651 73.6969
25.8651 73.6969
-0.004 19.3118
ITEM: ATOMS id xs ys zs c_msd_abov[4] 
2881 0.522083 0.522083 1.00058 1.09115 
ITEM: TIMESTEP
8400
ITEM: NUMBER OF ATOMS
1
ITEM: BOX BOUNDS ss ss ss
25.8651 73.6969
25.8651 73.6969
-0.004 19.3118
ITEM: ATOMS id xs ys zs c_msd_abov[4] 
2881 0.523741 0.523741 1.02083 0.686668 
ITEM: TIMESTEP
8480
ITEM: NUMBER OF ATOMS
1
ITEM: BOX BOUNDS ss ss ss
25.8651 73.6969
25.8651 73.6969
-0.004 19.3118
ITEM: ATOMS id xs ys zs c_msd_abov[4] 
2881 0.524783 0.524783 1.03009 0.501669 
ITEM: TIMESTEP
8560
ITEM: NUMBER OF ATOMS
1
ITEM: BOX BOUNDS ss ss ss
25.8651 73.6969
25.8651 73.6969
-0.004 19.3118
ITEM: ATOMS id xs ys zs c_msd_abov[4] 
2881 0.525048 0.525048 1.03513 0.403832 
ITEM: TIMESTEP
8640
ITEM: NUMBER OF ATOMS
1
ITEM: BOX BOUNDS ss ss ss
25.9388 73.8728
25.9388 73.8728
-0.004 20.2022
ITEM: ATOMS id xs ys zs c_msd_abov[4] 
2881 0.522427 0.522427 1.00168 0.15798 
ITEM: TIMESTEP
8720
ITEM: NUMBER OF ATOMS
1
ITEM: BOX BOUNDS ss ss ss
25.9388 73.8728
25.9388 73.8728
-0.004 20.2022
ITEM: ATOMS id xs ys zs c_msd_abov[4] 
2881 0.522307 0.522307 0.997763 0.23738 
ITEM: TIMESTEP
8800
ITEM: NUMBER OF ATOMS
1
ITEM: BOX BOUNDS ss ss ss
25.9388 73.8728
25.9388 73.8728
-0.004 20.2022
ITEM: ATOMS id xs ys zs c_msd_abov[4] 
2881 0.521702 0.521702 0.985695 0.483957 
ITEM: TIMESTEP
8880
ITEM: NUMBER OF ATOMS
1
ITEM: BOX BOUNDS ss ss ss
25.9388 73.8728
25.9388 73.8728
-0.004 20.2022
ITEM: ATOMS id xs ys zs c_msd_abov[4] 
2881 0.52036 0.52036 0.98705 0.476379 
ITEM: TIMESTEP
8960
ITEM: NUMBER OF ATOMS
1
ITEM: BOX BOUNDS ss ss ss
26.0129 73.9177
26.0129 73.9177
-0.004 19.9535
ITEM: ATOMS id xs ys zs c_msd_abov[4] 
2881 0.518462 0.518462 0.998592 0.506101 
ITEM: TIMESTEP
9040
ITEM: NUMBER OF ATOMS
1
ITEM: BOX BOUNDS ss ss ss
26.0129 73.9177
26.0129 73.9177
-0.004 19.9535
ITEM: ATOMS id xs ys zs c_msd_abov[4] 
2881 0.518265 0.518265 0.993668 0.602646 
ITEM: TIMESTEP
9120
ITEM: NUMBER OF ATOMS
1
ITEM: BOX BOUNDS ss ss ss
26.0129 73.9177
26.0129 73.9177
-0.004 19.9535
ITEM: ATOMS id xs ys zs c_msd_abov[4] 
2881 0.519585 0.519585 0.987378 0.701879 
ITEM: TIMESTEP
9200
ITEM: NUMBER OF ATOMS
1
ITEM: BOX BOUNDS ss ss ss
25.7606 73.9738
25.7606 73.9738
-0.004 19.5102
ITEM: ATOMS id xs ys zs c_msd_abov[4] 
2881 0.524775 0.524775 0.999795 0.894429 
ITEM: TIMESTEP
9280
ITEM: NUMBER OF ATOMS
1
ITEM: BOX BOUNDS ss ss ss
25.7606 73.9738
25.7606 73.9738
-0.004 19.5102
ITEM: ATOMS id xs ys zs c_msd_abov[4] 
2881 0.527243 0.527243 0.995036 1.019 
ITEM: TIMESTEP
9360
ITEM: NUMBER OF ATOMS
1
ITEM: BOX BOUNDS ss ss ss
25.7606 73.9738
25.7606 73.9738
-0.004 19.5102
ITEM: ATOMS id xs ys zs c_msd_abov[4] 
2881 0.528425 0.528425 1.01061 0.76529 
ITEM: TIMESTEP
9440
ITEM: NUMBER OF ATOMS
1
ITEM: BOX BOUNDS ss ss ss
25.7606 73.9738
25.7606 73.9738
-0.004 19.5102
ITEM: ATOMS id xs ys zs c_msd_abov[4] 
2881 0.528593 0.528593 1.02208 0.58413 
ITEM: TIMESTEP
9520
ITEM: NUMBER OF ATOMS
1
ITEM: BOX BOUNDS ss ss ss
25.7606 73.9738
25.7606 73.9738
-0.004 19.5102
ITEM: ATOMS id xs ys zs c_msd_abov[4] 
2881 0.527852 0.527852 1.02105 0.570199 
ITEM: TIMESTEP
9600
ITEM: NUMBER OF ATOMS
1
ITEM: BOX BOUNDS ss ss ss
25.7233 73.9839
25.7233 73.9839
-0.004 19.9257
ITEM: ATOMS id xs ys zs c_msd_abov[4] 
2881 0.526962 0.526962 1.00547 0.432159 
ITEM: TIMESTEP
9680
ITEM: NUMBER OF ATOMS
1
ITEM: BOX BOUNDS ss ss ss
25.7233 73.9839
25.7233 73.9839
-0.004 19.9257
ITEM: ATOMS id xs ys zs c_msd_abov[4] 
2881 0.526229 0.526229 1.01036 0.323576 
ITEM: TIMESTEP
9760
ITEM: NUMBER OF ATOMS
1
ITEM: BOX BOUNDS ss ss ss
25.7852 73.8993
25.7852 73.8993
-0.004 20.0346
ITEM: ATOMS id xs ys zs c_msd_abov[4] 
2881 0.525974 0.525974 0.993995 0.503046 
ITEM: TIMESTEP
9840
ITEM: NUMBER OF ATOMS
1
ITEM: BOX BOUNDS ss ss ss
25.7852 73.8993
25.7852 73.8993
-0.004 20.0346
ITEM: ATOMS id xs ys zs c_msd_abov[4] 
2881 0.526321 0.526321 0.985401 0.675 
ITEM: TIMESTEP
9920
ITEM: NUMBER OF ATOMS
1
ITEM: BOX BOUNDS ss ss ss
25.7852 73.8993
25.7852 73.8993
-0.004 20.0346
ITEM: ATOMS id xs ys zs c_msd_abov[4] 
2881 0.525748 0.525748 1.00003 0.383633 
ITEM: TIMESTEP
10000
ITEM: NUMBER OF ATOMS
1
ITEM: BOX BOUNDS ss ss ss
25.8668 74.0121
25.8668 74.0121
-0.004 20.1537
ITEM: ATOMS id xs ys zs c_msd_abov[4] 
2881 0.521913 0.521913 1.00123 0.215975 
ITEM: TIMESTEP
10080
ITEM: NUMBER OF ATOMS
1
ITEM: BOX BOUNDS ss ss ss
25.8668 74.0121
25.8668 74.0121
-0.004 20.1537
ITEM: ATOMS id xs ys zs c_msd_abov[4] 
2881 0.52149 0.52149 0.999834 0.2441 
ITEM: TIMESTEP
10160
ITEM: NUMBER OF ATOMS
1
ITEM: BOX BOUNDS ss ss ss
25.8668 74.0121
25.8668 74.0121
-0.004 20.1537
ITEM: ATOMS id xs ys zs c_msd_abov[4] 
2881 0.522194 0.522194 1.00711 0.102202 
ITEM: TIMESTEP
10240
ITEM: NUMBER OF ATOMS
1
ITEM: BOX BOUNDS ss ss ss
25.4669 74.1592
25.4669 74.1592
-0.004 20.5422
ITEM: ATOMS id xs ys zs c_msd_abov[4] 
2881 0.523684 0.523684 1.00078 0.166365 
ITEM: TIMESTEP
10320
ITEM: NUMBER OF ATOMS
1
ITEM: BOX BOUNDS ss ss ss
25.4669 74.1592
25.4669 74.1592
-0.004 20.5422
ITEM: ATOMS id xs ys zs c_msd_abov[4] 
2881 0.523863 0.523863 1.00385 0.227604 
ITEM: TIMESTEP
10400
ITEM: NUMBER OF ATOMS
1
ITEM: BOX BOUNDS ss ss ss
25.4669 74.1592
25.4669 74.1592
-0.004 20.5422
ITEM: ATOMS id xs ys zs c_msd_abov[4] 
2881 0.526418 0.526418 0.997703 0.190642 
ITEM: TIMESTEP
10480
ITEM: NUMBER OF ATOMS
1
ITEM: BOX BOUNDS ss ss ss
25.2243 74.0704
25.2243 74.0704
-0.004 20.4612
ITEM: ATOMS id xs ys zs c_msd_abov[4] 
2881 0.531372 0.531372 1.00109 0.289649 
ITEM: TIMESTEP
10560
ITEM: NUMBER OF ATOMS
1
ITEM: BOX BOUNDS ss ss ss
25.2243 74.0704
25.2243 74.0704
-0.004 20.4612
ITEM: ATOMS id xs ys zs c_msd_abov[4] 
2881 0.530845 0.530845 1.00279 0.269417 
ITEM: TIMESTEP
10640
ITEM: NUMBER OF ATOMS
1
ITEM: BOX BOUNDS ss ss ss
25.2538 74.2654
25.2538 74.2654
-0.004 20.4647
ITEM: ATOMS id xs ys zs c_msd_abov[4] 
2881 0.528635 0.528635 0.998619 0.255384 
ITEM: TIMESTEP
10720
ITEM: NUMBER OF ATOMS
1
ITEM: BOX BOUNDS ss ss ss
25.2538 74.2654
25.2538 74.2654
-0.004 20.4647
ITEM: ATOMS id xs ys zs c_msd_abov[4] 
2881 0.528581 0.528581 0.9968 0.248164 
ITEM: TIMESTEP
10800
ITEM: NUMBER OF ATOMS
1
ITEM: BOX BOUNDS ss ss ss
25.2538 74.2654
25.2538 74.2654
-0.004 20.4647
ITEM: ATOMS id xs ys zs c_msd_abov[4] 
2881 0.528447 0.528447 0.995486 0.239775 
ITEM: TIMESTEP
10880
ITEM: NUMBER OF ATOMS
1
ITEM: BOX BOUNDS ss ss ss
25.1814 74.1496
25.1814 74.1496
-0.004 20.3772
ITEM: ATOMS id xs ys zs c_msd_abov[4] 
2881 0.530391 0.530391 1.00205 0.239822 
ITEM: TIMESTEP
10960
ITEM: NUMBER OF ATOMS
1
ITEM: BOX BOUNDS ss ss ss
25.1814 74.1496
25.1814 74.1496
-0.004 20.3772
ITEM: ATOMS id xs ys zs c_msd_abov[4] 
2881 0.529128 0.529128 1.00009 0.151802 
ITEM: TIMESTEP
11040
ITEM: NUMBER OF ATOMS
1
ITEM: BOX BOUNDS ss ss ss
25.1814 74.1496
25.1814 74.1496
-0.004 20.3772
ITEM: ATOMS id xs ys zs c_msd_abov[4] 
2881 0.527437 0.527437 0.987632 0.271 
ITEM: TIMESTEP
11120
ITEM: NUMBER OF ATOMS
1
ITEM: BOX BOUNDS ss ss ss
25.1926 74.0774
25.1926 74.0774
-0.004 20.1132
ITEM: ATOMS id xs ys zs c_msd_abov[4] 
2881 0.526432 0.526432 0.999636 0.299562 
ITEM: TIMESTEP
11200
ITEM: NUMBER OF ATOMS
1
ITEM: BOX BOUNDS ss ss ss
25.1926 74.0774
25.1926 74.0774
-0.004 20.1132
ITEM: ATOMS id xs ys zs c_msd_abov[4] 
2881 0.524498 0.524498 1.00292 0.309466 
ITEM: TIMESTEP
11280
ITEM: NUMBER OF ATOMS
1
ITEM: BOX BOUNDS ss ss ss
25.2094 74.2077
25.2094 74.2077
-0.004 20.1206
ITEM: ATOMS id xs ys zs c_msd_abov[4] 
2881 0.522381 0.522381 0.994374 0.462792 
ITEM: TIMESTEP
11360
ITEM: NUMBER OF ATOMS
1
ITEM: BOX BOUNDS ss ss ss
25.2094 74.2077
25.2094 74.2077
-0.004 20.1206
ITEM: ATOMS id xs ys zs c_msd_abov[4] 
2881 0.523786 0.523786 0.993466 0.434279 
ITEM: TIMESTEP
11440
ITEM: NUMBER OF ATOMS
1
ITEM: BOX BOUNDS ss ss ss
25.1761 74.3085
25.1761 74.3085
-0.004 19.9946
ITEM: ATOMS id xs ys zs c_msd_abov[4] 
2881 0.522664 0.522664 1.00534 0.344907 
ITEM: TIMESTEP
11520
ITEM: NUMBER OF ATOMS
1
ITEM: BOX BOUNDS ss ss ss
25.1761 74.3085
25.1761 74.3085
-0.004 19.9946
ITEM: ATOMS id xs ys zs c_msd_abov[4] 
2881 0.519888 0.519888 1.00369 0.496947 
ITEM: TIMESTEP
11600
ITEM: NUMBER OF ATOMS
1
ITEM: BOX BOUNDS ss ss ss
25.0808 73.99
25.0808 73.99
-0.004 20.0168
ITEM: ATOMS id xs ys zs c_msd_abov[4] 
2881 0.521699 0.521699 0.995626 0.719382 
ITEM: TIMESTEP
11680
ITEM: NUMBER OF ATOMS
1
ITEM: BOX BOUNDS ss ss ss
25.0808 73.99
25.0808 73.99
-0.004 20.0168
ITEM: ATOMS id xs ys zs c_msd_abov[4] 
2881 0.522922 0.522922 0.990632 0.731252 
ITEM: TIMESTEP
11760
ITEM: NUMBER OF ATOMS
1
ITEM: BOX BOUNDS ss ss ss
25.1409 74.0174
25.1409 74.0174
-0.004 19.8281
ITEM: ATOMS id xs ys zs c_msd_abov[4] 
2881 0.525159 0.525159 0.995265 0.705331 
ITEM: TIMESTEP
11840
ITEM: NUMBER OF ATOMS
1
ITEM: BOX BOUNDS ss ss ss
25.1409 74.0174
25.1409 74.0174
-0.004 19.8281
ITEM: ATOMS id xs ys zs c_msd_abov[4] 
2881 0.527967 0.527967 0.990524 0.755875 
ITEM: TIMESTEP
11920
ITEM: NUMBER OF ATOMS
1
ITEM: BOX BOUNDS ss ss ss
25.1882 74.4928
25.1882 74.4928
-0.004 19.6469
ITEM: ATOMS id xs ys zs c_msd_abov[4] 
2881 0.526564 0.526564 1.00089 0.76614 
ITEM: TIMESTEP
12000
ITEM: NUMBER OF ATOMS
1
ITEM: BOX BOUNDS ss ss ss
25.1882 74.4928
25.1882 74.4928
-0.004 19.6469
ITEM: ATOMS id xs ys zs c_msd_abov[4] 
2881 0.530704 0.530704 0.996645 0.966392 
ITEM: TIMESTEP
12080
ITEM: NUMBER OF ATOMS
1
ITEM: BOX BOUNDS ss ss ss
24.9613 74.758
24.9613 74.758
-0.004 19.5124
ITEM: ATOMS id xs ys zs c_msd_abov[4] 
2881 0.530474 0.530474 0.995434 1.11793 
ITEM: TIMESTEP
12160
ITEM: NUMBER OF ATOMS
1
ITEM: BOX BOUNDS ss ss ss
24.9613 74.758
24.9613 74.758
-0.004 19.5124