ITEM: TIMESTEP
0
ITEM: NUMBER OF ATOMS
1
ITEM: BOX BOUNDS ss ss ss
26.5002 73.4304
26.5002 73.4304
-0.004 20.398
ITEM: ATOMS id xs ys zs c_msd_abov[4] 
2881 0.521728 0.521728 0.999804 0 
ITEM: TIMESTEP
80
ITEM: NUMBER OF ATOMS
1
ITEM: BOX BOUNDS ss ss ss
26.5002 73.4304
26.5002 73.4304
-0.004 20.398
ITEM: ATOMS id xs ys zs c_msd_abov[4] 
2881 0.521728 0.521728 0.986849 0.264298 
ITEM: TIMESTEP
160
ITEM: NUMBER OF ATOMS
1
ITEM: BOX BOUNDS ss ss ss
26.5002 73.4304
26.5002 73.4304
-0.004 20.398
ITEM: ATOMS id xs ys zs c_msd_abov[4] 
2881 0.521728 0.521728 0.970167 0.604656 
ITEM: TIMESTEP
240
ITEM: NUMBER OF ATOMS
1
ITEM: BOX BOUNDS ss ss ss
26.5002 73.4304
26.5002 73.4304
-0.004 20.398
ITEM: ATOMS id xs ys zs c_msd_abov[4] 
2881 0.521728 0.521728 0.969442 0.619449 
ITEM: TIMESTEP
320
ITEM: NUMBER OF ATOMS
1
ITEM: BOX BOUNDS ss ss ss
26.4783 73.4523
26.4783 73.4523
-0.004 19.5863
ITEM: ATOMS id xs ys zs c_msd_abov[4] 
2881 0.521708 0.521708 0.998379 0.839477 
ITEM: TIMESTEP
400
ITEM: NUMBER OF ATOMS
1
ITEM: BOX BOUNDS ss ss ss
26.4783 73.4523
26.4783 73.4523
-0.004 19.5863
ITEM: ATOMS id xs ys zs c_msd_abov[4] 
2881 0.521709 0.521709 0.987044 1.06154 
ITEM: TIMESTEP
480
ITEM: NUMBER OF ATOMS
1
ITEM: BOX BOUNDS ss ss ss
26.4783 73.4523
26.4783 73.4523
-0.004 19.5863
ITEM: ATOMS id xs ys zs c_msd_abov[4] 
2881 0.521712 0.521712 0.992556 0.95355 
ITEM: TIMESTEP
560
ITEM: NUMBER OF ATOMS
1
ITEM: BOX BOUNDS ss ss ss
26.4783 73.4523
26.4783 73.4523
-0.004 19.5863
ITEM: ATOMS id xs ys zs c_msd_abov[4] 
2881 0.521721 0.521721 0.993146 0.942006 
ITEM: TIMESTEP
640
ITEM: NUMBER OF ATOMS
1
ITEM: BOX BOUNDS ss ss ss
26.4783 73.4523
26.4783 73.4523
-0.004 19.5863
ITEM: ATOMS id xs ys zs c_msd_abov[4] 
2881 0.521741 0.521741 0.993372 0.937565 
ITEM: TIMESTEP
720
ITEM: NUMBER OF ATOMS
1
ITEM: BOX BOUNDS ss ss ss
26.4783 73.4523
26.4783 73.4523
-0.004 19.5863
ITEM: ATOMS id xs ys zs c_msd_abov[4] 
2881 0.521746 0.521746 1.00155 0.777286 
ITEM: TIMESTEP
800
ITEM: NUMBER OF ATOMS
1
ITEM: BOX BOUNDS ss ss ss
26.4783 73.4523
26.4783 73.4523
-0.004 19.5863
ITEM: ATOMS id xs ys zs c_msd_abov[4] 
2881 0.521713 0.521713 1.00368 0.73557 
ITEM: TIMESTEP
880
ITEM: NUMBER OF ATOMS
1
ITEM: BOX BOUNDS ss ss ss
26.4783 73.4523
26.4783 73.4523
-0.004 19.5863
ITEM: ATOMS id xs ys zs c_msd_abov[4] 
2881 0.521584 0.521584 1.00685 0.673677 
ITEM: TIMESTEP
960
ITEM: NUMBER OF ATOMS
1
ITEM: BOX BOUNDS ss ss ss
26.4783 73.4523
26.4783 73.4523
-0.004 19.5863
ITEM: ATOMS id xs ys zs c_msd_abov[4] 
2881 0.52142 0.52142 1.01284 0.55661 
ITEM: TIMESTEP
1040
ITEM: NUMBER OF ATOMS
1
ITEM: BOX BOUNDS ss ss ss
26.4783 73.4523
26.4783 73.4523
-0.004 19.5863
ITEM: ATOMS id xs ys zs c_msd_abov[4] 
2881 0.521302 0.521302 1.01404 0.533421 
ITEM: TIMESTEP
1120
ITEM: NUMBER OF ATOMS
1
ITEM: BOX BOUNDS ss ss ss
26.4783 73.4523
26.4783 73.4523
-0.004 19.5863
ITEM: ATOMS id xs ys zs c_msd_abov[4] 
2881 0.52128 0.52128 1.02539 0.311608 
ITEM: TIMESTEP
1200
ITEM: NUMBER OF ATOMS
1
ITEM: BOX BOUNDS ss ss ss
26.4783 73.4523
26.4783 73.4523
-0.004 19.5863
ITEM: ATOMS id xs ys zs c_msd_abov[4] 
2881 0.521295 0.521295 1.03613 0.10363 
ITEM: TIMESTEP
1280
ITEM: NUMBER OF ATOMS
1
ITEM: BOX BOUNDS ss ss ss
26.4177 73.5145
26.4177 73.5145
-0.004 20.2747
ITEM: ATOMS id xs ys zs c_msd_abov[4] 
2881 0.521233 0.521233 0.997678 0.168509 
ITEM: TIMESTEP
1360
ITEM: NUMBER OF ATOMS
1
ITEM: BOX BOUNDS ss ss ss
26.4177 73.5145
26.4177 73.5145
-0.004 20.2747
ITEM: ATOMS id xs ys zs c_msd_abov[4] 
2881 0.521309 0.521309 1.00508 0.0271153 
ITEM: TIMESTEP
1440
ITEM: NUMBER OF ATOMS
1
ITEM: BOX BOUNDS ss ss ss
26.4177 73.5145
26.4177 73.5145
-0.004 20.2747
ITEM: ATOMS id xs ys zs c_msd_abov[4] 
2881 0.521325 0.521325 1.01742 0.234811 
ITEM: TIMESTEP
1520
ITEM: NUMBER OF ATOMS
1
ITEM: BOX BOUNDS ss ss ss
26.4177 73.5145
26.4177 73.5145
-0.004 20.2747
ITEM: ATOMS id xs ys zs c_msd_abov[4] 
2881 0.521275 0.521275 1.01499 0.1862 
ITEM: TIMESTEP
1600
ITEM: NUMBER OF ATOMS
1
ITEM: BOX BOUNDS ss ss ss
26.4177 73.5145
26.4177 73.5145
-0.004 20.2747
ITEM: ATOMS id xs ys zs c_msd_abov[4] 
2881 0.521362 0.521362 1.0161 0.208003 
ITEM: TIMESTEP
1680
ITEM: NUMBER OF ATOMS
1
ITEM: BOX BOUNDS ss ss ss
26.4177 73.5145
26.4177 73.5145
-0.004 20.2747
ITEM: ATOMS id xs ys zs c_msd_abov[4] 
2881 0.521592 0.521592 1.01929 0.271815 
ITEM: TIMESTEP
1760
ITEM: NUMBER OF ATOMS
1
ITEM: BOX BOUNDS ss ss ss
26.4177 73.5145
26.4177 73.5145
-0.004 20.2747
ITEM: ATOMS id xs ys zs c_msd_abov[4] 
2881 0.52187 0.52187 1.00715 0.0301899 
ITEM: TIMESTEP
1840
ITEM: NUMBER OF ATOMS
1
ITEM: BOX BOUNDS ss ss ss
26.4177 73.5145
26.4177 73.5145
-0.004 20.2747
ITEM: ATOMS id xs ys zs c_msd_abov[4] 
2881 0.522333 0.522333 0.997896 0.168534 
ITEM: TIMESTEP
1920
ITEM: NUMBER OF ATOMS
1
ITEM: BOX BOUNDS ss ss ss
26.4177 73.5145
26.4177 73.5145
-0.004 20.2747
ITEM: ATOMS id xs ys zs c_msd_abov[4] 
2881 0.522538 0.522538 0.998286 0.165412 
ITEM: TIMESTEP
2000
ITEM: NUMBER OF ATOMS
1
ITEM: BOX BOUNDS ss ss ss
26.4088 73.5174
26.4088 73.5174
-0.004 20.1797
ITEM: ATOMS id xs ys zs c_msd_abov[4] 
2881 0.522468 0.522468 0.992652 0.366242 
ITEM: TIMESTEP
2080
ITEM: NUMBER OF ATOMS
1
ITEM: BOX BOUNDS ss ss ss
26.4088 73.5174
26.4088 73.5174
-0.004 20.1797
ITEM: ATOMS id xs ys zs c_msd_abov[4] 
2881 0.522182 0.522182 0.981665 0.585253 
ITEM: TIMESTEP
2160
ITEM: NUMBER OF ATOMS
1
ITEM: BOX BOUNDS ss ss ss
26.4088 73.5174
26.4088 73.5174
-0.004 20.1797
ITEM: ATOMS id xs ys zs c_msd_abov[4] 
2881 0.521908 0.521908 0.977338 0.671826 
ITEM: TIMESTEP
2240
ITEM: NUMBER OF ATOMS
1
ITEM: BOX BOUNDS ss ss ss
26.4088 73.5174
26.4088 73.5174
-0.004 20.1797
ITEM: ATOMS id xs ys zs c_msd_abov[4] 
2881 0.521412 0.521412 0.967205 0.876397 
ITEM: TIMESTEP
2320
ITEM: NUMBER OF ATOMS
1
ITEM: BOX BOUNDS ss ss ss
26.4088 73.5174
26.4088 73.5174
-0.004 20.1797
ITEM: ATOMS id xs ys zs c_msd_abov[4] 
2881 0.520975 0.520975 0.965723 0.90737 
ITEM: TIMESTEP
2400
ITEM: NUMBER OF ATOMS
1
ITEM: BOX BOUNDS ss ss ss
26.4088 73.5174
26.4088 73.5174
-0.004 20.1797
ITEM: ATOMS id xs ys zs c_msd_abov[4] 
2881 0.521509 0.521509 0.971038 0.798925 
ITEM: TIMESTEP
2480
ITEM: NUMBER OF ATOMS
1
ITEM: BOX BOUNDS ss ss ss
26.4088 73.5174
26.4088 73.5174
-0.004 20.1797
ITEM: ATOMS id xs ys zs c_msd_abov[4] 
2881 0.522088 0.522088 0.962077 0.98004 
ITEM: TIMESTEP
2560
ITEM: NUMBER OF ATOMS
1
ITEM: BOX BOUNDS ss ss ss
26.4088 73.5174
26.4088 73.5174
-0.004 20.1797
ITEM: ATOMS id xs ys zs c_msd_abov[4] 
2881 0.522576 0.522576 0.953636 1.15157 
ITEM: TIMESTEP
2640
ITEM: NUMBER OF ATOMS
1
ITEM: BOX BOUNDS ss ss ss
26.4088 73.5174
26.4088 73.5174
-0.004 20.1797
ITEM: ATOMS id xs ys zs c_msd_abov[4] 
2881 0.523247 0.523247 0.959503 1.03683 
ITEM: TIMESTEP
2720
ITEM: NUMBER OF ATOMS
1
ITEM: BOX BOUNDS ss ss ss
26.4088 73.5174
26.4088 73.5174
-0.004 20.1797
ITEM: ATOMS id xs ys zs c_msd_abov[4] 
2881 0.523201 0.523201 0.961344 0.999554 
ITEM: TIMESTEP
2800
ITEM: NUMBER OF ATOMS
1
ITEM: BOX BOUNDS ss ss ss
26.4088 73.5174
26.4088 73.5174
-0.004 20.1797
ITEM: ATOMS id xs ys zs c_msd_abov[4] 
2881 0.522159 0.522159 0.963251 0.956512 
ITEM: TIMESTEP
2880
ITEM: NUMBER OF ATOMS
1
ITEM: BOX BOUNDS ss ss ss
26.4088 73.5174
26.4088 73.5174
-0.004 20.1797
ITEM: ATOMS id xs ys zs c_msd_abov[4] 
2881 0.521247 0.521247 0.967077 0.879277 
ITEM: TIMESTEP
2960
ITEM: NUMBER OF ATOMS
1
ITEM: BOX BOUNDS ss ss ss
26.4088 73.5174
26.4088 73.5174
-0.004 20.1797
ITEM: ATOMS id xs ys zs c_msd_abov[4] 
2881 0.520578 0.520578 0.965171 0.920238 
ITEM: TIMESTEP
3040
ITEM: NUMBER OF ATOMS
1
ITEM: BOX BOUNDS ss ss ss
26.4088 73.5174
26.4088 73.5174
-0.004 20.1797
ITEM: ATOMS id xs ys zs c_msd_abov[4] 
2881 0.520615 0.520615 0.971167 0.799448 
ITEM: TIMESTEP
3120
ITEM: NUMBER OF ATOMS
1
ITEM: BOX BOUNDS ss ss ss
26.4088 73.5174
26.4088 73.5174
-0.004 20.1797
ITEM: ATOMS id xs ys zs c_msd_abov[4] 
2881 0.520922 0.520922 0.981415 0.591616 
ITEM: TIMESTEP
3200
ITEM: NUMBER OF ATOMS
1
ITEM: BOX BOUNDS ss ss ss
26.4088 73.5174
26.4088 73.5174
-0.004 20.1797
ITEM: ATOMS id xs ys zs c_msd_abov[4] 
2881 0.520399 0.520399 0.980194 0.620037 
ITEM: TIMESTEP
3280
ITEM: NUMBER OF ATOMS
1
ITEM: BOX BOUNDS ss ss ss
26.3892 73.541
26.3892 73.541
-0.004 19.7599
ITEM: ATOMS id xs ys zs c_msd_abov[4] 
2881 0.519211 0.519211 1.00366 0.584429 
ITEM: TIMESTEP
3360
ITEM: NUMBER OF ATOMS
1
ITEM: BOX BOUNDS ss ss ss
26.3892 73.541
26.3892 73.541
-0.004 19.7599
ITEM: ATOMS id xs ys zs c_msd_abov[4] 
2881 0.519628 0.519628 1.01843 0.301005 
ITEM: TIMESTEP
3440
ITEM: NUMBER OF ATOMS
1
ITEM: BOX BOUNDS ss ss ss
26.3892 73.541
26.3892 73.541
-0.004 19.7599
ITEM: ATOMS id xs ys zs c_msd_abov[4] 
2881 0.520745 0.520745 1.02326 0.184161 
ITEM: TIMESTEP
3520
ITEM: NUMBER OF ATOMS
1
ITEM: BOX BOUNDS ss ss ss
26.3892 73.541
26.3892 73.541
-0.004 19.7599
ITEM: ATOMS id xs ys zs c_msd_abov[4] 
2881 0.521514 0.521514 1.02656 0.109446 
ITEM: TIMESTEP
3600
ITEM: NUMBER OF ATOMS
1
ITEM: BOX BOUNDS ss ss ss
26.3892 73.541
26.3892 73.541
-0.004 19.7599
ITEM: ATOMS id xs ys zs c_msd_abov[4] 
2881 0.521548 0.521548 1.02538 0.132677 
ITEM: TIMESTEP
3680
ITEM: NUMBER OF ATOMS
1
ITEM: BOX BOUNDS ss ss ss
26.3892 73.541
26.3892 73.541
-0.004 19.7599
ITEM: ATOMS id xs ys zs c_msd_abov[4] 
2881 0.521131 0.521131 1.01281 0.382479 
ITEM: TIMESTEP
3760
ITEM: NUMBER OF ATOMS
1
ITEM: BOX BOUNDS ss ss ss
26.3892 73.541
26.3892 73.541
-0.004 19.7599
ITEM: ATOMS id xs ys zs c_msd_abov[4] 
2881 0.520328 0.520328 1.01074 0.430735 
ITEM: TIMESTEP
3840
ITEM: NUMBER OF ATOMS
1
ITEM: BOX BOUNDS ss ss ss
26.2158 73.6945
26.2158 73.6945
-0.004 20.0362
ITEM: ATOMS id xs ys zs c_msd_abov[4] 
2881 0.520369 0.520369 1.00351 0.300833 
ITEM: TIMESTEP
3920
ITEM: NUMBER OF ATOMS
1
ITEM: BOX BOUNDS ss ss ss
26.2158 73.6945
26.2158 73.6945
-0.004 20.0362
ITEM: ATOMS id xs ys zs c_msd_abov[4] 
2881 0.521171 0.521171 1.00514 0.257178 
ITEM: TIMESTEP
4000
ITEM: NUMBER OF ATOMS
1
ITEM: BOX BOUNDS ss ss ss
26.2158 73.6945
26.2158 73.6945
-0.004 20.0362
ITEM: ATOMS id xs ys zs c_msd_abov[4] 
2881 0.522395 0.522395 1.0033 0.295456 
ITEM: TIMESTEP
4080
ITEM: NUMBER OF ATOMS
1
ITEM: BOX BOUNDS ss ss ss
26.2158 73.6945
26.2158 73.6945
-0.004 20.0362
ITEM: ATOMS id xs ys zs c_msd_abov[4] 
2881 0.523479 0.523479 0.996774 0.439215 
ITEM: TIMESTEP
4160
ITEM: NUMBER OF ATOMS
1
ITEM: BOX BOUNDS ss ss ss
26.2158 73.6945
26.2158 73.6945
-0.004 20.0362
ITEM: ATOMS id xs ys zs c_msd_abov[4] 
2881 0.523579 0.523579 0.993411 0.506027 
ITEM: TIMESTEP
4240
ITEM: NUMBER OF ATOMS
1
ITEM: BOX BOUNDS ss ss ss
26.2158 73.6945
26.2158 73.6945
-0.004 20.0362
ITEM: ATOMS id xs ys zs c_msd_abov[4] 
2881 0.523707 0.523707 0.996786 0.443419 
ITEM: TIMESTEP
4320
ITEM: NUMBER OF ATOMS
1
ITEM: BOX BOUNDS ss ss ss
26.2158 73.6945
26.2158 73.6945
-0.004 20.0362
ITEM: ATOMS id xs ys zs c_msd_abov[4] 
2881 0.524258 0.524258 0.998659 0.421561 
ITEM: TIMESTEP
4400
ITEM: NUMBER OF ATOMS
1
ITEM: BOX BOUNDS ss ss ss
26.2158 73.6945
26.2158 73.6945
-0.004 20.0362
ITEM: ATOMS id xs ys zs c_msd_abov[4] 
2881 0.524698 0.524698 1.001 0.393546 
ITEM: TIMESTEP
4480
ITEM: NUMBER OF ATOMS
1
ITEM: BOX BOUNDS ss ss ss
26.2158 73.6945
26.2158 73.6945
-0.004 20.0362
ITEM: ATOMS id xs ys zs c_msd_abov[4] 
2881 0.52452 0.52452 1.00348 0.345088 
ITEM: TIMESTEP
4560
ITEM: NUMBER OF ATOMS
1
ITEM: BOX BOUNDS ss ss ss
26.2158 73.6945
26.2158 73.6945
-0.004 20.0362
ITEM: ATOMS id xs ys zs c_msd_abov[4] 
2881 0.523499 0.523499 1.00522 0.280812 
ITEM: TIMESTEP
4640
ITEM: NUMBER OF ATOMS
1
ITEM: BOX BOUNDS ss ss ss
26.4266 73.5042
26.4266 73.5042
-0.004 20.1774
ITEM: ATOMS id xs ys zs c_msd_abov[4] 
2881 0.522217 0.522217 1.00494 0.122727 
ITEM: TIMESTEP
4720
ITEM: NUMBER OF ATOMS
1
ITEM: BOX BOUNDS ss ss ss
26.4266 73.5042
26.4266 73.5042
-0.004 20.1774
ITEM: ATOMS id xs ys zs c_msd_abov[4] 
2881 0.52164 0.52164 1.01034 0.00807982 
ITEM: TIMESTEP
4800
ITEM: NUMBER OF ATOMS
1
ITEM: BOX BOUNDS ss ss ss
26.3204 73.6402
26.3204 73.6402
-0.004 20.3188
ITEM: ATOMS id xs ys zs c_msd_abov[4] 
2881 0.521404 0.521404 0.999016 0.0958411 
ITEM: TIMESTEP
4880
ITEM: NUMBER OF ATOMS
1
ITEM: BOX BOUNDS ss ss ss
26.3204 73.6402
26.3204 73.6402
-0.004 20.3188
ITEM: ATOMS id xs ys zs c_msd_abov[4] 
2881 0.521221 0.521221 0.995176 0.173194 
ITEM: TIMESTEP
4960
ITEM: NUMBER OF ATOMS
1
ITEM: BOX BOUNDS ss ss ss
26.3204 73.6402
26.3204 73.6402
-0.004 20.3188
ITEM: ATOMS id xs ys zs c_msd_abov[4] 
2881 0.519259 0.519259 0.996267 0.200592 
ITEM: TIMESTEP
5040
ITEM: NUMBER OF ATOMS
1
ITEM: BOX BOUNDS ss ss ss
26.3204 73.6402
26.3204 73.6402
-0.004 20.3188
ITEM: ATOMS id xs ys zs c_msd_abov[4] 
2881 0.517396 0.517396 0.99079 0.367019 
ITEM: TIMESTEP
5120
ITEM: NUMBER OF ATOMS
1
ITEM: BOX BOUNDS ss ss ss
26.3204 73.6402
26.3204 73.6402
-0.004 20.3188
ITEM: ATOMS id xs ys zs c_msd_abov[4] 
2881 0.517252 0.517252 0.986177 0.444681 
ITEM: TIMESTEP
5200
ITEM: NUMBER OF ATOMS
1
ITEM: BOX BOUNDS ss ss ss
26.3204 73.6402
26.3204 73.6402
-0.004 20.3188
ITEM: ATOMS id xs ys zs c_msd_abov[4] 
2881 0.518525 0.518525 0.983962 0.440106 
ITEM: TIMESTEP
5280
ITEM: NUMBER OF ATOMS
1
ITEM: BOX BOUNDS ss ss ss
26.3204 73.6402
26.3204 73.6402
-0.004 20.3188
ITEM: ATOMS id xs ys zs c_msd_abov[4] 
2881 0.520016 0.520016 0.977315 0.542319 
ITEM: TIMESTEP
5360
ITEM: NUMBER OF ATOMS
1
ITEM: BOX BOUNDS ss ss ss
26.3204 73.6402
26.3204 73.6402
-0.004 20.3188
ITEM: ATOMS id xs ys zs c_msd_abov[4] 
2881 0.521462 0.521462 0.978199 0.518439 
ITEM: TIMESTEP
5440
ITEM: NUMBER OF ATOMS
1
ITEM: BOX BOUNDS ss ss ss
26.3204 73.6402
26.3204 73.6402
-0.004 20.3188
ITEM: ATOMS id xs ys zs c_msd_abov[4] 
2881 0.52274 0.52274 0.977723 0.537458 
ITEM: TIMESTEP
5520
ITEM: NUMBER OF ATOMS
1
ITEM: BOX BOUNDS ss ss ss
26.2671 73.7461
26.2671 73.7461
-0.004 19.6026
ITEM: ATOMS id xs ys zs c_msd_abov[4] 
2881 0.52324 0.52324 0.998933 0.831363 
ITEM: TIMESTEP
5600
ITEM: NUMBER OF ATOMS
1
ITEM: BOX BOUNDS ss ss ss
26.2671 73.7461
26.2671 73.7461
-0.004 19.6026
ITEM: ATOMS id xs ys zs c_msd_abov[4] 
2881 0.523104 0.523104 0.990971 0.982854 
ITEM: TIMESTEP
5680
ITEM: NUMBER OF ATOMS
1
ITEM: BOX BOUNDS ss ss ss
26.2671 73.7461
26.2671 73.7461
-0.004 19.6026
ITEM: ATOMS id xs ys zs c_msd_abov[4] 
2881 0.520429 0.520429 0.99844 0.822087 
ITEM: TIMESTEP
5760
ITEM: NUMBER OF ATOMS
1
ITEM: BOX BOUNDS ss ss ss
26.2671 73.7461
26.2671 73.7461
-0.004 19.6026
ITEM: ATOMS id xs ys zs c_msd_abov[4] 
2881 0.51899 0.51899 0.99791 0.839452 
ITEM: TIMESTEP
5840
ITEM: NUMBER OF ATOMS
1
ITEM: BOX BOUNDS ss ss ss
26.2239 73.6345
26.2239 73.6345
-0.004 19.384
ITEM: ATOMS id xs ys zs c_msd_abov[4] 
2881 0.521562 0.521562 0.997154 1.06627 
ITEM: TIMESTEP
5920
ITEM: NUMBER OF ATOMS
1
ITEM: BOX BOUNDS ss ss ss
26.2239 73.6345
26.2239 73.6345
-0.004 19.384
ITEM: ATOMS id xs ys zs c_msd_abov[4] 
2881 0.521641 0.521641 0.988469 1.23431 
ITEM: TIMESTEP
6000
ITEM: NUMBER OF ATOMS
1
ITEM: BOX BOUNDS ss ss ss
26.2239 73.6345
26.2239 73.6345
-0.004 19.384
ITEM: ATOMS id xs ys zs c_msd_abov[4] 
2881 0.521325 0.521325 0.981975 1.36098 
ITEM: TIMESTEP
6080
ITEM: NUMBER OF ATOMS
1
ITEM: BOX BOUNDS ss ss ss
26.2239 73.6345
26.2239 73.6345
-0.004 19.384
ITEM: ATOMS id xs ys zs c_msd_abov[4] 
2881 0.52303 0.52303 0.982472 1.35083 
ITEM: TIMESTEP
6160
ITEM: NUMBER OF ATOMS
1
ITEM: BOX BOUNDS ss ss ss
26.2239 73.6345
26.2239 73.6345
-0.004 19.384
ITEM: ATOMS id xs ys zs c_msd_abov[4] 
2881 0.522865 0.522865 0.98964 1.21155 
ITEM: TIMESTEP
6240
ITEM: NUMBER OF ATOMS
1
ITEM: BOX BOUNDS ss ss ss
26.2239 73.6345
26.2239 73.6345
-0.004 19.384
ITEM: ATOMS id xs ys zs c_msd_abov[4] 
2881 0.522504 0.522504 0.999862 1.01283 
ITEM: TIMESTEP
6320
ITEM: NUMBER OF ATOMS
1
ITEM: BOX BOUNDS ss ss ss
26.2239 73.6345
26.2239 73.6345
-0.004 19.384
ITEM: ATOMS id xs ys zs c_msd_abov[4] 
2881 0.523575 0.523575 1.01896 0.648319 
ITEM: TIMESTEP
6400
ITEM: NUMBER OF ATOMS
1
ITEM: BOX BOUNDS ss ss ss
26.2239 73.6345
26.2239 73.6345
-0.004 19.384
ITEM: ATOMS id xs ys zs c_msd_abov[4] 
2881 0.524835 0.524835 1.03369 0.396101 
ITEM: TIMESTEP
6480
ITEM: NUMBER OF ATOMS
1
ITEM: BOX BOUNDS ss ss ss
26.2332 73.7743
26.2332 73.7743
-0.004 20.0478
ITEM: ATOMS id xs ys zs c_msd_abov[4] 
2881 0.524206 0.524206 1.00479 0.346565 
ITEM: TIMESTEP
6560
ITEM: NUMBER OF ATOMS
1
ITEM: BOX BOUNDS ss ss ss
26.2332 73.7743
26.2332 73.7743
-0.004 20.0478
ITEM: ATOMS id xs ys zs c_msd_abov[4] 
2881 0.523854 0.523854 1.01488 0.221349 
ITEM: TIMESTEP
6640
ITEM: NUMBER OF ATOMS
1
ITEM: BOX BOUNDS ss ss ss
26.2332 73.7743
26.2332 73.7743
-0.004 20.0478
ITEM: ATOMS id xs ys zs c_msd_abov[4] 
2881 0.521565 0.521565 1.025 0.167147 
ITEM: TIMESTEP
6720
ITEM: NUMBER OF ATOMS
1
ITEM: BOX BOUNDS ss ss ss
26.2349 73.7229
26.2349 73.7229
-0.004 20.4746
ITEM: ATOMS id xs ys zs c_msd_abov[4] 
2881 0.51987 0.51987 0.999805 0.116938 
ITEM: TIMESTEP
6800
ITEM: NUMBER OF ATOMS
1
ITEM: BOX BOUNDS ss ss ss
26.2349 73.7229
26.2349 73.7229
-0.004 20.4746
ITEM: ATOMS id xs ys zs c_msd_abov[4] 
2881 0.518838 0.518838 0.99707 0.159003 
ITEM: TIMESTEP
6880
ITEM: NUMBER OF ATOMS
1
ITEM: BOX BOUNDS ss ss ss
26.2349 73.7229
26.2349 73.7229
-0.004 20.4746
ITEM: ATOMS id xs ys zs c_msd_abov[4] 
2881 0.519512 0.519512 1.0071 0.252348 
ITEM: TIMESTEP
6960
ITEM: NUMBER OF ATOMS
1
ITEM: BOX BOUNDS ss ss ss
26.2349 73.7229
26.2349 73.7229
-0.004 20.4746
ITEM: ATOMS id xs ys zs c_msd_abov[4] 
2881 0.520286 0.520286 1.00768 0.24531 
ITEM: TIMESTEP
7040
ITEM: NUMBER OF ATOMS
1
ITEM: BOX BOUNDS ss ss ss
26.2349 73.7229
26.2349 73.7229
-0.004 20.4746
ITEM: ATOMS id xs ys zs c_msd_abov[4] 
2881 0.518847 0.518847 0.997411 0.159428 
ITEM: TIMESTEP
7120
ITEM: NUMBER OF ATOMS
1
ITEM: BOX BOUNDS ss ss ss
26.1073 73.6532
26.1073 73.6532
-0.004 20.4074
ITEM: ATOMS id xs ys zs c_msd_abov[4] 
2881 0.520764 0.520764 1.00038 0.167517 
ITEM: TIMESTEP
7200
ITEM: NUMBER OF ATOMS
1
ITEM: BOX BOUNDS ss ss ss
26.1073 73.6532
26.1073 73.6532
-0.004 20.4074
ITEM: ATOMS id xs ys zs c_msd_abov[4] 
2881 0.524743 0.524743 1.00225 0.117396 
ITEM: TIMESTEP
7280
ITEM: NUMBER OF ATOMS
1
ITEM: BOX BOUNDS ss ss ss
26.1073 73.6532
26.1073 73.6532
-0.004 20.4074
ITEM: ATOMS id xs ys zs c_msd_abov[4] 
2881 0.525789 0.525789 0.996837 0.179183 
ITEM: TIMESTEP
7360
ITEM: NUMBER OF ATOMS
1
ITEM: BOX BOUNDS ss ss ss
26.1073 73.6532
26.1073 73.6532
-0.004 20.4074
ITEM: ATOMS id xs ys zs c_msd_abov[4] 
2881 0.523858 0.523858 0.990737 0.180613 
ITEM: TIMESTEP
7440
ITEM: NUMBER OF ATOMS
1
ITEM: BOX BOUNDS ss ss ss
25.9464 73.7932
25.9464 73.7932
-0.004 20.1982
ITEM: ATOMS id xs ys zs c_msd_abov[4] 
2881 0.526683 0.526683 0.998161 0.326196 
ITEM: TIMESTEP
7520
ITEM: NUMBER OF ATOMS
1
ITEM: BOX BOUNDS ss ss ss
25.9464 73.7932
25.9464 73.7932
-0.004 20.1982
ITEM: ATOMS id xs ys zs c_msd_abov[4] 
2881 0.52911 0.52911 0.991753 0.534265 
ITEM: TIMESTEP
7600
ITEM: NUMBER OF ATOMS
1
ITEM: BOX BOUNDS ss ss ss
25.9464 73.7932
25.9464 73.7932
-0.004 20.1982
ITEM: ATOMS id xs ys zs c_msd_abov[4] 
2881 0.524984 0.524984 0.988525 0.442384 
ITEM: TIMESTEP
7680
ITEM: NUMBER OF ATOMS
1
ITEM: BOX BOUNDS ss ss ss
25.9464 73.7932
25.9464 73.7932
-0.004 20.1982
ITEM: ATOMS id xs ys zs c_msd_abov[4] 
2881 0.521416 0.521416 0.98756 0.465054 
ITEM: TIMESTEP
7760
ITEM: NUMBER OF ATOMS
1
ITEM: BOX BOUNDS ss ss ss
25.5294 74.1262
25.5294 74.1262
-0.004 20.0201
ITEM: ATOMS id xs ys zs c_msd_abov[4] 
2881 0.521799 0.521799 1.00131 0.374147 
ITEM: TIMESTEP
7840
ITEM: NUMBER OF ATOMS
1
ITEM: BOX BOUNDS ss ss ss
25.5294 74.1262
25.5294 74.1262
-0.004 20.0201
ITEM: ATOMS id xs ys zs c_msd_abov[4] 
2881 0.520304 0.520304 1.00405 0.37933 
ITEM: TIMESTEP
7920
ITEM: NUMBER OF ATOMS
1
ITEM: BOX BOUNDS ss ss ss
25.5294 74.1262
25.5294 74.1262
-0.004 20.0201
ITEM: ATOMS id xs ys zs c_msd_abov[4] 
2881 0.520213 0.520213 1.00472 0.373221 
ITEM: TIMESTEP
8000
ITEM: NUMBER OF ATOMS
1
ITEM: BOX BOUNDS ss ss ss
25.5294 74.1262
25.5294 74.1262
-0.004 20.0201
ITEM: ATOMS id xs ys zs c_msd_abov[4] 
2881 0.521899 0.521899 0.99614 0.469957 
ITEM: TIMESTEP
8080
ITEM: NUMBER OF ATOMS
1
ITEM: BOX BOUNDS ss ss ss
25.5306 73.9142
25.5306 73.9142
-0.004 19.7154
ITEM: ATOMS id xs ys zs c_msd_abov[4] 
2881 0.52396 0.52396 0.998846 0.71637 
ITEM: TIMESTEP
8160
ITEM: NUMBER OF ATOMS
1
ITEM: BOX BOUNDS ss ss ss
25.5306 73.9142
25.5306 73.9142
-0.004 19.7154
ITEM: ATOMS id xs ys zs c_msd_abov[4] 
2881 0.521688 0.521688 0.993077 0.869059 
ITEM: TIMESTEP
8240
ITEM: NUMBER OF ATOMS
1
ITEM: BOX BOUNDS ss ss ss
25.5306 73.9142
25.5306 73.9142
-0.004 19.7154
ITEM: ATOMS id xs ys zs c_msd_abov[4] 
2881 0.521371 0.521371 0.983133 1.06158 
ITEM: TIMESTEP
8320
ITEM: NUMBER OF ATOMS
1
ITEM: BOX BOUNDS ss ss ss
25.6728 73.7559
25.6728 73.7559
-0.004 19.2919
ITEM: ATOMS id xs ys zs c_msd_abov[4] 
2881 0.52332 0.52332 1.00164 1.09112 
ITEM: TIMESTEP
8400
ITEM: NUMBER OF ATOMS
1
ITEM: BOX BOUNDS ss ss ss
25.6728 73.7559
25.6728 73.7559
-0.004 19.2919
ITEM: ATOMS id xs ys zs c_msd_abov[4] 
2881 0.525003 0.525003 1.02138 0.696243 
ITEM: TIMESTEP
8480
ITEM: NUMBER OF ATOMS
1
ITEM: BOX BOUNDS ss ss ss
25.6728 73.7559
25.6728 73.7559
-0.004 19.2919
ITEM: ATOMS id xs ys zs c_msd_abov[4] 
2881 0.526142 0.526142 1.03119 0.500728 
ITEM: TIMESTEP
8560
ITEM: NUMBER OF ATOMS
1
ITEM: BOX BOUNDS ss ss ss
25.5691 73.7284
25.5691 73.7284
-0.004 19.9065
ITEM: ATOMS id xs ys zs c_msd_abov[4] 
2881 0.527929 0.527929 1.00353 0.417296 
ITEM: TIMESTEP
8640
ITEM: NUMBER OF ATOMS
1
ITEM: BOX BOUNDS ss ss ss
25.5691 73.7284
25.5691 73.7284
-0.004 19.9065
ITEM: ATOMS id xs ys zs c_msd_abov[4] 
2881 0.527927 0.527927 1.01545 0.180334 
ITEM: TIMESTEP
8720
ITEM: NUMBER OF ATOMS
1
ITEM: BOX BOUNDS ss ss ss
25.5691 73.7284
25.5691 73.7284
-0.004 19.9065
ITEM: ATOMS id xs ys zs c_msd_abov[4] 
2881 0.52768 0.52768 1.01206 0.247358 
ITEM: TIMESTEP
8800
ITEM: NUMBER OF ATOMS
1
ITEM: BOX BOUNDS ss ss ss
25.5691 73.7284
25.5691 73.7284
-0.004 19.9065
ITEM: ATOMS id xs ys zs c_msd_abov[4] 
2881 0.527026 0.527026 0.999712 0.49566 
ITEM: TIMESTEP
8880
ITEM: NUMBER OF ATOMS
1
ITEM: BOX BOUNDS ss ss ss
25.8408 73.8507
25.8408 73.8507
-0.004 19.89
ITEM: ATOMS id xs ys zs c_msd_abov[4] 
2881 0.521488 0.521488 1.00183 0.491743 
ITEM: TIMESTEP
8960
ITEM: NUMBER OF ATOMS
1
ITEM: BOX BOUNDS ss ss ss
25.8408 73.8507
25.8408 73.8507
-0.004 19.89
ITEM: ATOMS id xs ys zs c_msd_abov[4] 
2881 0.520445 0.520445 1.00163 0.52174 
ITEM: TIMESTEP
9040
ITEM: NUMBER OF ATOMS
1
ITEM: BOX BOUNDS ss ss ss
25.8408 73.8507
25.8408 73.8507
-0.004 19.89
ITEM: ATOMS id xs ys zs c_msd_abov[4] 
2881 0.519948 0.519948 0.996396 0.630374 
ITEM: TIMESTEP
9120
ITEM: NUMBER OF ATOMS
1
ITEM: BOX BOUNDS ss ss ss
25.8136 74.0854
25.8136 74.0854
-0.004 19.7266
ITEM: ATOMS id xs ys zs c_msd_abov[4] 
2881 0.518602 0.518602 0.997608 0.74057 
ITEM: TIMESTEP
9200
ITEM: NUMBER OF ATOMS
1
ITEM: BOX BOUNDS ss ss ss
25.8136 74.0854
25.8136 74.0854
-0.004 19.7266
ITEM: ATOMS id xs ys zs c_msd_abov[4] 
2881 0.521712 0.521712 0.98769 0.910431 
ITEM: TIMESTEP
9280
ITEM: NUMBER OF ATOMS
1
ITEM: BOX BOUNDS ss ss ss
25.8136 74.0854
25.8136 74.0854
-0.004 19.7266
ITEM: ATOMS id xs ys zs c_msd_abov[4] 
2881 0.525484 0.525484 0.983559 1.02927 
ITEM: TIMESTEP
9360
ITEM: NUMBER OF ATOMS
1
ITEM: BOX BOUNDS ss ss ss
25.8136 74.0854
25.8136 74.0854
-0.004 19.7266
ITEM: ATOMS id xs ys zs c_msd_abov[4] 
2881 0.527508 0.527508 0.998437 0.811447 
ITEM: TIMESTEP
9440
ITEM: NUMBER OF ATOMS
1
ITEM: BOX BOUNDS ss ss ss
25.802 74.1675
25.802 74.1675
-0.004 19.7838
ITEM: ATOMS id xs ys zs c_msd_abov[4] 
2881 0.526306 0.526306 1.00734 0.603426 
ITEM: TIMESTEP
9520
ITEM: NUMBER OF ATOMS
1
ITEM: BOX BOUNDS ss ss ss
25.802 74.1675
25.802 74.1675
-0.004 19.7838
ITEM: ATOMS id xs ys zs c_msd_abov[4] 
2881 0.525144 0.525144 1.00678 0.565521 
ITEM: TIMESTEP
9600
ITEM: NUMBER OF ATOMS
1
ITEM: BOX BOUNDS ss ss ss
25.802 74.1675
25.802 74.1675
-0.004 19.7838
ITEM: ATOMS id xs ys zs c_msd_abov[4] 
2881 0.524713 0.524713 1.01329 0.44332 
ITEM: TIMESTEP
9680
ITEM: NUMBER OF ATOMS
1
ITEM: BOX BOUNDS ss ss ss
25.6764 73.9541
25.6764 73.9541
-0.004 20.0811
ITEM: ATOMS id xs ys zs c_msd_abov[4] 
2881 0.527641 0.527641 1.00406 0.328191 
ITEM: TIMESTEP
9760
ITEM: NUMBER OF ATOMS
1
ITEM: BOX BOUNDS ss ss ss
25.6764 73.9541
25.6764 73.9541
-0.004 20.0811
ITEM: ATOMS id xs ys zs c_msd_abov[4] 
2881 0.526303 0.526303 0.994824 0.440213 
ITEM: TIMESTEP
9840
ITEM: NUMBER OF ATOMS
1
ITEM: BOX BOUNDS ss ss ss
25.6764 73.9541
25.6764 73.9541
-0.004 20.0811
ITEM: ATOMS id xs ys zs c_msd_abov[4] 
2881 0.526036 0.526036 0.986814 0.590714 
ITEM: TIMESTEP
9920
ITEM: NUMBER OF ATOMS
1
ITEM: BOX BOUNDS ss ss ss
25.5952 74.1672
25.5952 74.1672
-0.004 20.0447
ITEM: ATOMS id xs ys zs c_msd_abov[4] 
2881 0.524196 0.524196 1.00291 0.307898 
ITEM: TIMESTEP
10000
ITEM: NUMBER OF ATOMS
1
ITEM: BOX BOUNDS ss ss ss
25.5952 74.1672
25.5952 74.1672
-0.004 20.0447
ITEM: ATOMS id xs ys zs c_msd_abov[4] 
2881 0.521569 0.521569 1.01018 0.165504 
ITEM: TIMESTEP
10080
ITEM: NUMBER OF ATOMS
1
ITEM: BOX BOUNDS ss ss ss
25.5952 74.1672
25.5952 74.1672
-0.004 20.0447
ITEM: ATOMS id xs ys zs c_msd_abov[4] 
2881 0.519282 0.519282 1.01126 0.266821 
ITEM: TIMESTEP
10160
ITEM: NUMBER OF ATOMS
1
ITEM: BOX BOUNDS ss ss ss
25.5952 74.1672
25.5952 74.1672
-0.004 20.0447
ITEM: ATOMS id xs ys zs c_msd_abov[4] 
2881 0.520215 0.520215 1.01997 0.17981 
ITEM: TIMESTEP
10240
ITEM: NUMBER OF ATOMS
1
ITEM: BOX BOUNDS ss ss ss
25.4238 74.3616
25.4238 74.3616
-0.004 20.4929
ITEM: ATOMS id xs ys zs c_msd_abov[4] 
2881 0.522053 0.522053 1.00462 0.194343 
ITEM: TIMESTEP
10320
ITEM: NUMBER OF ATOMS
1
ITEM: BOX BOUNDS ss ss ss
25.4238 74.3616
25.4238 74.3616
-0.004 20.4929
ITEM: ATOMS id xs ys zs c_msd_abov[4] 
2881 0.524353 0.524353 1.00872 0.311172 
ITEM: TIMESTEP
10400
ITEM: NUMBER OF ATOMS
1
ITEM: BOX BOUNDS ss ss ss
25.4238 74.3616
25.4238 74.3616
-0.004 20.4929
ITEM: ATOMS id xs ys zs c_msd_abov[4] 
2881 0.52648 0.52648 1.00854 0.39743 
ITEM: TIMESTEP
10480
ITEM: NUMBER OF ATOMS
1
ITEM: BOX BOUNDS ss ss ss
25.4227 74.1749
25.4227 74.1749
-0.004 20.7164
ITEM: ATOMS id xs ys zs c_msd_abov[4] 
2881 0.528965 0.528965 1.00199 0.484079 
ITEM: TIMESTEP
10560
ITEM: NUMBER OF ATOMS
1
ITEM: BOX BOUNDS ss ss ss
25.4227 74.1749
25.4227 74.1749
-0.004 20.7164
ITEM: ATOMS id xs ys zs c_msd_abov[4] 
2881 0.52913 0.52913 1.00309 0.508749 
ITEM: TIMESTEP
10640
ITEM: NUMBER OF ATOMS
1
ITEM: BOX BOUNDS ss ss ss
25.4302 74.1968
25.4302 74.1968
-0.004 20.631
ITEM: ATOMS id xs ys zs c_msd_abov[4] 
2881 0.52865 0.52865 0.995848 0.353163 
ITEM: TIMESTEP
10720
ITEM: NUMBER OF ATOMS
1
ITEM: BOX BOUNDS ss ss ss
25.4302 74.1968
25.4302 74.1968
-0.004 20.631
ITEM: ATOMS id xs ys zs c_msd_abov[4] 
2881 0.526501 0.526501 0.984626 0.188792 
ITEM: TIMESTEP
10800
ITEM: NUMBER OF ATOMS
1
ITEM: BOX BOUNDS ss ss ss
25.4302 74.1968
25.4302 74.1968
-0.004 20.631
ITEM: ATOMS id xs ys zs c_msd_abov[4] 
2881 0.524975 0.524975 0.983881 0.115942 
ITEM: TIMESTEP
10880
ITEM: NUMBER OF ATOMS
1
ITEM: BOX BOUNDS ss ss ss
24.9154 74.1876
24.9154 74.1876
-0.004 20.2851
ITEM: ATOMS id xs ys zs c_msd_abov[4] 
2881 0.530239 0.530239 0.995716 0.211504 
ITEM: TIMESTEP
10960
ITEM: NUMBER OF ATOMS
1
ITEM: BOX BOUNDS ss ss ss
24.9154 74.1876
24.9154 74.1876
-0.004 20.2851
ITEM: ATOMS id xs ys zs c_msd_abov[4] 
2881 0.529223 0.529223 0.981626 0.481799 
ITEM: TIMESTEP
11040
ITEM: NUMBER OF ATOMS
1
ITEM: BOX BOUNDS ss ss ss
24.9445 74.1742
24.9445 74.1742
-0.004 19.8252
ITEM: ATOMS id xs ys zs c_msd_abov[4] 
2881 0.524696 0.524696 0.995628 0.719567 
ITEM: TIMESTEP
11120
ITEM: NUMBER OF ATOMS
1
ITEM: BOX BOUNDS ss ss ss
24.9445 74.1742
24.9445 74.1742
-0.004 19.8252
ITEM: ATOMS id xs ys zs c_msd_abov[4] 
2881 0.522252 0.522252 0.997979 0.767337 
ITEM: TIMESTEP
11200
ITEM: NUMBER OF ATOMS
1
ITEM: BOX BOUNDS ss ss ss
24.9445 74.1742
24.9445 74.1742
-0.004 19.8252
ITEM: ATOMS id xs ys zs c_msd_abov[4] 
2881 0.522907 0.522907 1.00099 0.69229 
ITEM: TIMESTEP
11280
ITEM: NUMBER OF ATOMS
1
ITEM: BOX BOUNDS ss ss ss
25.0282 74.02
25.0282 74.02
-0.004 19.8489
ITEM: ATOMS id xs ys zs c_msd_abov[4] 
2881 0.525181 0.525181 1.00183 0.601817 
ITEM: TIMESTEP
11360
ITEM: NUMBER OF ATOMS
1
ITEM: BOX BOUNDS ss ss ss
25.0282 74.02
25.0282 74.02
-0.004 19.8489
ITEM: ATOMS id xs ys zs c_msd_abov[4] 
2881 0.52739 0.52739 1.00828 0.416218 
ITEM: TIMESTEP
11440
ITEM: NUMBER OF ATOMS
1
ITEM: BOX BOUNDS ss ss ss
24.8063 74.2642
24.8063 74.2642
-0.004 20.0383
ITEM: ATOMS id xs ys zs c_msd_abov[4] 
2881 0.528557 0.528557 0.999509 0.369316 
ITEM: TIMESTEP
11520
ITEM: NUMBER OF ATOMS
1
ITEM: BOX BOUNDS ss ss ss
24.8063 74.2642
24.8063 74.2642
-0.004 20.0383
ITEM: ATOMS id xs ys zs c_msd_abov[4] 
2881 0.528113 0.528113 0.995957 0.4447 
ITEM: TIMESTEP
11600
ITEM: NUMBER OF ATOMS
1
ITEM: BOX BOUNDS ss ss ss
24.8927 74.0977
24.8927 74.0977
-0.004 19.8845
ITEM: ATOMS id xs ys zs c_msd_abov[4] 
2881 0.528667 0.528667 0.995369 0.61192 
ITEM: TIMESTEP
11680
ITEM: NUMBER OF ATOMS
1
ITEM: BOX BOUNDS ss ss ss
24.8927 74.0977
24.8927 74.0977
-0.004 19.8845
ITEM: ATOMS id xs ys zs c_msd_abov[4] 
2881 0.529157 0.529157 0.991529 0.68241 
ITEM: TIMESTEP
11760
ITEM: NUMBER OF ATOMS
1
ITEM: BOX BOUNDS ss ss ss
25.0705 74.1782
25.0705 74.1782
-0.004 19.7159
ITEM: ATOMS id xs ys zs c_msd_abov[4] 
2881 0.525346 0.525346 0.999768 0.702054 
ITEM: TIMESTEP
11840
ITEM: NUMBER OF ATOMS
1
ITEM: BOX BOUNDS ss ss ss
25.0705 74.1782
25.0705 74.1782
-0.004 19.7159
ITEM: ATOMS id xs ys zs c_msd_abov[4] 
2881 0.523688 0.523688 0.99794 0.771003 
ITEM: TIMESTEP
11920
ITEM: NUMBER OF ATOMS
1
ITEM: BOX BOUNDS ss ss ss
25.0705 74.1782
25.0705 74.1782
-0.004 19.7159
ITEM: ATOMS id xs ys zs c_msd_abov[4] 
2881 0.524305 0.524305 1.0046 0.633132 
ITEM: TIMESTEP
12000
ITEM: NUMBER OF ATOMS
1
ITEM: BOX BOUNDS ss ss ss
24.5742 74.2174
24.5742 74.2174
-0.004 19.953
ITEM: ATOMS id xs ys zs c_msd_abov[4] 
2881 0.530484 0.530484 0.997228 0.507744 
ITEM: TIMESTEP
12080
ITEM: NUMBER OF ATOMS
1
ITEM: BOX BOUNDS ss ss ss
24.5742 74.2174
24.5742 74.2174
-0.004 19.953
ITEM: ATOMS id xs ys zs c_msd_abov[4] 
2881 0.531615 0.531615 0.995078 0.539908 
ITEM: TIMESTEP
12160
ITEM: NUMBER OF ATOMS
1
ITEM: BOX BOUNDS ss ss ss
24.2009 74.2771